 Initial command:
 /cluster/software/Gaussian/g16_C.01/l1.exe "/cluster/work/users/davidbal/huge_pack_292/Gau-62663.inp" -scrdir="/cluster/work/users/davidbal/huge_pack_292/"
 Entering Link 1 = /cluster/software/Gaussian/g16_C.01/l1.exe PID=     78360.
  
 Copyright (c) 1988-2019, Gaussian, Inc.  All Rights Reserved.
  
 This is part of the Gaussian(R) 16 program.  It is based on
 the Gaussian(R) 09 system (copyright 2009, Gaussian, Inc.),
 the Gaussian(R) 03 system (copyright 2003, Gaussian, Inc.),
 the Gaussian(R) 98 system (copyright 1998, Gaussian, Inc.),
 the Gaussian(R) 94 system (copyright 1995, Gaussian, Inc.),
 the Gaussian 92(TM) system (copyright 1992, Gaussian, Inc.),
 the Gaussian 90(TM) system (copyright 1990, Gaussian, Inc.),
 the Gaussian 88(TM) system (copyright 1988, Gaussian, Inc.),
 the Gaussian 86(TM) system (copyright 1986, Carnegie Mellon
 University), and the Gaussian 82(TM) system (copyright 1983,
 Carnegie Mellon University). Gaussian is a federally registered
 trademark of Gaussian, Inc.
  
 This software contains proprietary and confidential information,
 including trade secrets, belonging to Gaussian, Inc.
  
 This software is provided under written license and may be
 used, copied, transmitted, or stored only in accord with that
 written license.
  
 The following legend is applicable only to US Government
 contracts under FAR:
  
                    RESTRICTED RIGHTS LEGEND
  
 Use, reproduction and disclosure by the US Government is
 subject to restrictions as set forth in subparagraphs (a)
 and (c) of the Commercial Computer Software - Restricted
 Rights clause in FAR 52.227-19.
  
 Gaussian, Inc.
 340 Quinnipiac St., Bldg. 40, Wallingford CT 06492
  
  
 ---------------------------------------------------------------
 Warning -- This program may not be used in any manner that
 competes with the business of Gaussian, Inc. or will provide
 assistance to any competitor of Gaussian, Inc.  The licensee
 of this program is prohibited from giving any competitor of
 Gaussian, Inc. access to this program.  By using this program,
 the user acknowledges that Gaussian, Inc. is engaged in the
 business of creating and licensing software in the field of
 computational chemistry and represents and warrants to the
 licensee that it is not a competitor of Gaussian, Inc. and that
 it will not use this program in any manner prohibited above.
 ---------------------------------------------------------------
  

 Cite this work as:
 Gaussian 16, Revision C.01,
 M. J. Frisch, G. W. Trucks, H. B. Schlegel, G. E. Scuseria, 
 M. A. Robb, J. R. Cheeseman, G. Scalmani, V. Barone, 
 G. A. Petersson, H. Nakatsuji, X. Li, M. Caricato, A. V. Marenich, 
 J. Bloino, B. G. Janesko, R. Gomperts, B. Mennucci, H. P. Hratchian, 
 J. V. Ortiz, A. F. Izmaylov, J. L. Sonnenberg, D. Williams-Young, 
 F. Ding, F. Lipparini, F. Egidi, J. Goings, B. Peng, A. Petrone, 
 T. Henderson, D. Ranasinghe, V. G. Zakrzewski, J. Gao, N. Rega, 
 G. Zheng, W. Liang, M. Hada, M. Ehara, K. Toyota, R. Fukuda, 
 J. Hasegawa, M. Ishida, T. Nakajima, Y. Honda, O. Kitao, H. Nakai, 
 T. Vreven, K. Throssell, J. A. Montgomery, Jr., J. E. Peralta, 
 F. Ogliaro, M. J. Bearpark, J. J. Heyd, E. N. Brothers, K. N. Kudin, 
 V. N. Staroverov, T. A. Keith, R. Kobayashi, J. Normand, 
 K. Raghavachari, A. P. Rendell, J. C. Burant, S. S. Iyengar, 
 J. Tomasi, M. Cossi, J. M. Millam, M. Klene, C. Adamo, R. Cammi, 
 J. W. Ochterski, R. L. Martin, K. Morokuma, O. Farkas, 
 J. B. Foresman, and D. J. Fox, Gaussian, Inc., Wallingford CT, 2019.
 
 ******************************************
 Gaussian 16:  ES64L-G16RevC.01  3-Jul-2019
                 6-Jul-2021 
 ******************************************
 %NProcShared=20
 Will use up to   20 processors via shared memory.
 %LindaWorkers=c3-12-ib
 %mem=25GB
 %chk=LALMER.chk
 SetLPE:    new flags="-opt 'Tsnet.Node.lindarsharg: ssh'  -nodelist 'c3-12-ib' -env GAUSS_MDEF=3355443200 -env GAUSS_EXEDIR="/cluster/software/Gaussian/g16_C.01/bsd:/cluster/software/Gaussian/g16_C.01""
 Will use up to    1 processors via Linda.
 ----------------------------------------------------------------------
 #p pbepbe/def2SVP empiricaldispersion=gd3bj geom=check guess=read freq
 ----------------------------------------------------------------------
 1/10=4,29=2,30=1,38=1/1,3;
 2/12=2,40=1/2;
 3/5=43,7=101,11=2,14=-4,25=1,30=1,71=2,74=1009,116=-2,124=41,140=1/1,2,3;
 4/5=1/1;
 5/5=2,38=6,98=1/2;
 8/6=4,10=90,11=11/1;
 11/6=1,8=1,9=11,15=111,16=1/1,2,10;
 10/6=1/2;
 6/7=2,8=2,9=2,10=2,28=1/1;
 7/8=1,10=1,25=1/1,2,3,16;
 1/10=4,30=1/3;
 99//99;
 Leave Link    1 at Tue Jul  6 00:47:38 2021, MaxMem=  3355443200 cpu:               6.2 elap:               0.3
 (Enter /cluster/software/Gaussian/g16_C.01/l101.exe)
 -------------
 tmQMg project
 -------------
 Structure from the checkpoint file:  "LALMER.chk"
 Charge =  1 Multiplicity = 1
 Redundant internal coordinates found in file.  (old form).
 Cd,0,9.2815416436,8.6507276511,8.7433536331
 O,0,8.015224728,9.3870332626,10.6904600304
 N,0,7.0572860754,8.3424695822,7.8871441863
 C,0,6.7405407947,7.0846299985,7.605409821
 S,0,5.2092133559,6.9266432809,6.7987207069
 C,0,5.0147691727,8.6389078951,6.8658536683
 C,0,6.1018843044,9.24655388,7.4804957727
 C,0,6.2900975512,10.7113841076,7.705273049
 N,0,8.7848857498,6.3054148434,8.5252477965
 C,0,7.6204460307,5.9575719875,7.9473584005
 C,0,7.3015968844,4.6059668567,7.702080529
 C,0,8.2299595974,3.6290533141,8.0789724546
 C,0,9.4395352318,4.0094460269,8.6786039961
 C,0,9.6912393886,5.3804990091,8.8863083324
 N,0,10.9984827216,7.2390980307,9.6731739
 C,0,12.1041330527,7.8422538396,10.1460281063
 C,0,13.2495175822,7.0948288249,10.4944417772
 C,0,13.2133281695,5.7072110036,10.3250176919
 C,0,12.0588175537,5.0971243705,9.8115254045
 C,0,10.9549461893,5.9090587465,9.4857540076
 N,0,10.9186531836,9.9825102917,9.9552188052
 C,0,12.0233197355,9.3054731068,10.2465465237
 S,0,13.3520356644,10.3242761572,10.7098334618
 C,0,12.3472412214,11.7070027511,10.4982706289
 C,0,11.0735963745,11.3444878505,10.0809458042
 C,0,9.9530848913,12.2765852347,9.7541549565
 Cl,0,10.6455860489,10.0150323473,6.449824936
 O,0,9.3437404571,10.4483040345,7.218423876
 O,0,10.8613654512,8.5520004905,6.8946911781
 O,0,11.7768053373,10.8556676472,6.9104935337
 O,0,10.4039082225,10.0940278119,5.000880415
 H,0,8.5688478689,9.5113739696,11.4852414612
 H,0,7.169900041,11.0671661196,7.130624324
 H,0,7.2094926293,8.9303732879,10.9987180181
 H,0,14.14931208,7.5928467637,10.8841156532
 H,0,12.7395765147,12.7163007552,10.669977574
 H,0,14.0906700583,5.096720344,10.5833109181
 H,0,10.1697601095,3.2459780439,8.9762420744
 H,0,10.201336923,13.3164776179,10.0312440092
 H,0,9.7477093055,12.2233969591,8.6656719243
 H,0,12.0338192185,4.0109587374,9.6555375558
 H,0,8.0126566121,2.5653644258,7.904084755
 H,0,6.3492564892,4.3281190407,7.2272789556
 H,0,9.0254822558,11.9733217089,10.2797452784
 H,0,4.1211742957,9.1173538933,6.4474391015
 H,0,6.4966721544,10.9120085175,8.776103064
 H,0,5.3957510789,11.2824955807,7.3989579498
 Recover connectivity data from disk.
 ITRead=  0  0  0  0  0  0  0  0  0  0  0  0  0  0  0  0  0  0  0  0
 ITRead=  0  0  0  0  0  0  0  0  0  0  0  0  0  0  0  0  0  0  0  0
 ITRead=  0  0  0  0  0  0  0
 MicOpt= -1 -1 -1 -1 -1 -1 -1 -1 -1 -1 -1 -1 -1 -1 -1 -1 -1 -1 -1 -1
 MicOpt= -1 -1 -1 -1 -1 -1 -1 -1 -1 -1 -1 -1 -1 -1 -1 -1 -1 -1 -1 -1
 MicOpt= -1 -1 -1 -1 -1 -1 -1
 NAtoms=     47 NQM=       47 NQMF=       0 NMMI=      0 NMMIF=      0
                NMic=       0 NMicF=      0.
                    Isotopes and Nuclear Properties:
 (Nuclear quadrupole moments (NQMom) in fm**2, nuclear magnetic moments (NMagM)
  in nuclear magnetons)

  Atom         1           2           3           4           5           6           7           8           9          10
 IAtWgt=         114          16          14          12          32          12          12          12          14          12
 AtmWgt= 113.9036000  15.9949146  14.0030740  12.0000000  31.9720718  12.0000000  12.0000000  12.0000000  14.0030740  12.0000000
 NucSpn=           0           0           2           0           0           0           0           0           2           0
 AtZEff= 253.4400000   5.6000000   4.5500000   3.6000000  13.6000000   3.6000000   3.6000000   3.6000000   4.5500000   3.6000000
 NQMom=    0.0000000   0.0000000   2.0440000   0.0000000   0.0000000   0.0000000   0.0000000   0.0000000   2.0440000   0.0000000
 NMagM=    0.0000000   0.0000000   0.4037610   0.0000000   0.0000000   0.0000000   0.0000000   0.0000000   0.4037610   0.0000000
 AtZNuc=  48.0000000   8.0000000   7.0000000   6.0000000  16.0000000   6.0000000   6.0000000   6.0000000   7.0000000   6.0000000

  Atom        11          12          13          14          15          16          17          18          19          20
 IAtWgt=          12          12          12          12          14          12          12          12          12          12
 AtmWgt=  12.0000000  12.0000000  12.0000000  12.0000000  14.0030740  12.0000000  12.0000000  12.0000000  12.0000000  12.0000000
 NucSpn=           0           0           0           0           2           0           0           0           0           0
 AtZEff=   3.6000000   3.6000000   3.6000000   3.6000000   4.5500000   3.6000000   3.6000000   3.6000000   3.6000000   3.6000000
 NQMom=    0.0000000   0.0000000   0.0000000   0.0000000   2.0440000   0.0000000   0.0000000   0.0000000   0.0000000   0.0000000
 NMagM=    0.0000000   0.0000000   0.0000000   0.0000000   0.4037610   0.0000000   0.0000000   0.0000000   0.0000000   0.0000000
 AtZNuc=   6.0000000   6.0000000   6.0000000   6.0000000   7.0000000   6.0000000   6.0000000   6.0000000   6.0000000   6.0000000

  Atom        21          22          23          24          25          26          27          28          29          30
 IAtWgt=          14          12          32          12          12          12          35          16          16          16
 AtmWgt=  14.0030740  12.0000000  31.9720718  12.0000000  12.0000000  12.0000000  34.9688527  15.9949146  15.9949146  15.9949146
 NucSpn=           2           0           0           0           0           0           3           0           0           0
 AtZEff=   4.5500000   3.6000000  13.6000000   3.6000000   3.6000000   3.6000000  14.2400000   5.6000000   5.6000000   5.6000000
 NQMom=    2.0440000   0.0000000   0.0000000   0.0000000   0.0000000   0.0000000  -8.1650000   0.0000000   0.0000000   0.0000000
 NMagM=    0.4037610   0.0000000   0.0000000   0.0000000   0.0000000   0.0000000   0.8218740   0.0000000   0.0000000   0.0000000
 AtZNuc=   7.0000000   6.0000000  16.0000000   6.0000000   6.0000000   6.0000000  17.0000000   8.0000000   8.0000000   8.0000000

  Atom        31          32          33          34          35          36          37          38          39          40
 IAtWgt=          16           1           1           1           1           1           1           1           1           1
 AtmWgt=  15.9949146   1.0078250   1.0078250   1.0078250   1.0078250   1.0078250   1.0078250   1.0078250   1.0078250   1.0078250
 NucSpn=           0           1           1           1           1           1           1           1           1           1
 AtZEff=   5.6000000   1.0000000   1.0000000   1.0000000   1.0000000   1.0000000   1.0000000   1.0000000   1.0000000   1.0000000
 NQMom=    0.0000000   0.0000000   0.0000000   0.0000000   0.0000000   0.0000000   0.0000000   0.0000000   0.0000000   0.0000000
 NMagM=    0.0000000   2.7928460   2.7928460   2.7928460   2.7928460   2.7928460   2.7928460   2.7928460   2.7928460   2.7928460
 AtZNuc=   8.0000000   1.0000000   1.0000000   1.0000000   1.0000000   1.0000000   1.0000000   1.0000000   1.0000000   1.0000000

  Atom        41          42          43          44          45          46          47
 IAtWgt=           1           1           1           1           1           1           1
 AtmWgt=   1.0078250   1.0078250   1.0078250   1.0078250   1.0078250   1.0078250   1.0078250
 NucSpn=           1           1           1           1           1           1           1
 AtZEff=   1.0000000   1.0000000   1.0000000   1.0000000   1.0000000   1.0000000   1.0000000
 NQMom=    0.0000000   0.0000000   0.0000000   0.0000000   0.0000000   0.0000000   0.0000000
 NMagM=    2.7928460   2.7928460   2.7928460   2.7928460   2.7928460   2.7928460   2.7928460
 AtZNuc=   1.0000000   1.0000000   1.0000000   1.0000000   1.0000000   1.0000000   1.0000000
 Leave Link  101 at Tue Jul  6 00:47:39 2021, MaxMem=  3355443200 cpu:               7.8 elap:               0.4
 (Enter /cluster/software/Gaussian/g16_C.01/l103.exe)

 GradGradGradGradGradGradGradGradGradGradGradGradGradGradGradGradGradGrad
 Berny optimization.
 Initialization pass.
                           ----------------------------
                           !    Initial Parameters    !
                           ! (Angstroms and Degrees)  !
 --------------------------                            --------------------------
 ! Name  Definition              Value          Derivative Info.                !
 --------------------------------------------------------------------------------
 ! R1    R(1,2)                  2.4366         calculate D2E/DX2 analytically  !
 ! R2    R(1,3)                  2.4032         calculate D2E/DX2 analytically  !
 ! R3    R(1,9)                  2.4072         calculate D2E/DX2 analytically  !
 ! R4    R(1,15)                 2.4094         calculate D2E/DX2 analytically  !
 ! R5    R(1,21)                 2.4336         calculate D2E/DX2 analytically  !
 ! R6    R(1,27)                 2.997          calculate D2E/DX2 analytically  !
 ! R7    R(1,28)                 2.3581         calculate D2E/DX2 analytically  !
 ! R8    R(2,32)                 0.9765         calculate D2E/DX2 analytically  !
 ! R9    R(2,34)                 0.9761         calculate D2E/DX2 analytically  !
 ! R10   R(3,4)                  1.3274         calculate D2E/DX2 analytically  !
 ! R11   R(3,7)                  1.3768         calculate D2E/DX2 analytically  !
 ! R12   R(4,5)                  1.738          calculate D2E/DX2 analytically  !
 ! R13   R(4,10)                 1.4702         calculate D2E/DX2 analytically  !
 ! R14   R(5,6)                  1.7246         calculate D2E/DX2 analytically  !
 ! R15   R(6,7)                  1.3888         calculate D2E/DX2 analytically  !
 ! R16   R(6,45)                 1.0966         calculate D2E/DX2 analytically  !
 ! R17   R(7,8)                  1.4939         calculate D2E/DX2 analytically  !
 ! R18   R(8,33)                 1.1094         calculate D2E/DX2 analytically  !
 ! R19   R(8,46)                 1.1089         calculate D2E/DX2 analytically  !
 ! R20   R(8,47)                 1.1045         calculate D2E/DX2 analytically  !
 ! R21   R(9,10)                 1.3457         calculate D2E/DX2 analytically  !
 ! R22   R(9,14)                 1.3444         calculate D2E/DX2 analytically  !
 ! R23   R(10,11)                1.4102         calculate D2E/DX2 analytically  !
 ! R24   R(11,12)                1.3994         calculate D2E/DX2 analytically  !
 ! R25   R(11,43)                1.0998         calculate D2E/DX2 analytically  !
 ! R26   R(12,13)                1.4026         calculate D2E/DX2 analytically  !
 ! R27   R(12,42)                1.0997         calculate D2E/DX2 analytically  !
 ! R28   R(13,14)                1.4094         calculate D2E/DX2 analytically  !
 ! R29   R(13,38)                1.0976         calculate D2E/DX2 analytically  !
 ! R30   R(14,20)                1.4952         calculate D2E/DX2 analytically  !
 ! R31   R(15,16)                1.3453         calculate D2E/DX2 analytically  !
 ! R32   R(15,20)                1.3439         calculate D2E/DX2 analytically  !
 ! R33   R(16,17)                1.4114         calculate D2E/DX2 analytically  !
 ! R34   R(16,22)                1.4689         calculate D2E/DX2 analytically  !
 ! R35   R(17,18)                1.3984         calculate D2E/DX2 analytically  !
 ! R36   R(17,35)                1.0998         calculate D2E/DX2 analytically  !
 ! R37   R(18,19)                1.4031         calculate D2E/DX2 analytically  !
 ! R38   R(18,37)                1.0996         calculate D2E/DX2 analytically  !
 ! R39   R(19,20)                1.4085         calculate D2E/DX2 analytically  !
 ! R40   R(19,41)                1.0976         calculate D2E/DX2 analytically  !
 ! R41   R(21,22)                1.328          calculate D2E/DX2 analytically  !
 ! R42   R(21,25)                1.3765         calculate D2E/DX2 analytically  !
 ! R43   R(22,23)                1.7373         calculate D2E/DX2 analytically  !
 ! R44   R(23,24)                1.7223         calculate D2E/DX2 analytically  !
 ! R45   R(24,25)                1.3884         calculate D2E/DX2 analytically  !
 ! R46   R(24,36)                1.0964         calculate D2E/DX2 analytically  !
 ! R47   R(25,26)                1.4937         calculate D2E/DX2 analytically  !
 ! R48   R(26,39)                1.1044         calculate D2E/DX2 analytically  !
 ! R49   R(26,40)                1.109          calculate D2E/DX2 analytically  !
 ! R50   R(26,44)                1.1084         calculate D2E/DX2 analytically  !
 ! R51   R(27,28)                1.5727         calculate D2E/DX2 analytically  !
 ! R52   R(27,29)                1.5443         calculate D2E/DX2 analytically  !
 ! R53   R(27,30)                1.4827         calculate D2E/DX2 analytically  !
 ! R54   R(27,31)                1.4711         calculate D2E/DX2 analytically  !
 ! A1    A(2,1,3)               80.9357         calculate D2E/DX2 analytically  !
 ! A2    A(2,1,9)              105.0459         calculate D2E/DX2 analytically  !
 ! A3    A(2,1,15)             103.8279         calculate D2E/DX2 analytically  !
 ! A4    A(2,1,21)              77.6611         calculate D2E/DX2 analytically  !
 ! A5    A(2,1,27)             135.2764         calculate D2E/DX2 analytically  !
 ! A6    A(2,1,28)             107.4649         calculate D2E/DX2 analytically  !
 ! A7    A(3,1,9)               69.6224         calculate D2E/DX2 analytically  !
 ! A8    A(3,1,15)             136.21           calculate D2E/DX2 analytically  !
 ! A9    A(3,1,21)             150.4854         calculate D2E/DX2 analytically  !
 ! A10   A(3,1,27)             101.9456         calculate D2E/DX2 analytically  !
 ! A11   A(3,1,28)              83.7881         calculate D2E/DX2 analytically  !
 ! A12   A(9,1,15)              67.1183         calculate D2E/DX2 analytically  !
 ! A13   A(9,1,21)             135.8144         calculate D2E/DX2 analytically  !
 ! A14   A(9,1,27)             117.9095         calculate D2E/DX2 analytically  !
 ! A15   A(9,1,28)             133.5943         calculate D2E/DX2 analytically  !
 ! A16   A(15,1,21)             69.4559         calculate D2E/DX2 analytically  !
 ! A17   A(15,1,27)            103.7512         calculate D2E/DX2 analytically  !
 ! A18   A(15,1,28)            132.6402         calculate D2E/DX2 analytically  !
 ! A19   A(21,1,27)             79.9674         calculate D2E/DX2 analytically  !
 ! A20   A(21,1,28)             83.5184         calculate D2E/DX2 analytically  !
 ! A21   A(1,2,32)             113.2173         calculate D2E/DX2 analytically  !
 ! A22   A(1,2,34)             122.683          calculate D2E/DX2 analytically  !
 ! A23   A(32,2,34)            105.6949         calculate D2E/DX2 analytically  !
 ! A24   A(1,3,4)              114.7104         calculate D2E/DX2 analytically  !
 ! A25   A(1,3,7)              131.5494         calculate D2E/DX2 analytically  !
 ! A26   A(4,3,7)              113.2031         calculate D2E/DX2 analytically  !
 ! A27   A(3,4,5)              113.2603         calculate D2E/DX2 analytically  !
 ! A28   A(3,4,10)             122.295          calculate D2E/DX2 analytically  !
 ! A29   A(5,4,10)             124.4439         calculate D2E/DX2 analytically  !
 ! A30   A(4,5,6)               89.4855         calculate D2E/DX2 analytically  !
 ! A31   A(5,6,7)              111.3075         calculate D2E/DX2 analytically  !
 ! A32   A(5,6,45)             120.6782         calculate D2E/DX2 analytically  !
 ! A33   A(7,6,45)             128.0124         calculate D2E/DX2 analytically  !
 ! A34   A(3,7,6)              112.7428         calculate D2E/DX2 analytically  !
 ! A35   A(3,7,8)              120.7988         calculate D2E/DX2 analytically  !
 ! A36   A(6,7,8)              126.4575         calculate D2E/DX2 analytically  !
 ! A37   A(7,8,33)             109.6593         calculate D2E/DX2 analytically  !
 ! A38   A(7,8,46)             110.254          calculate D2E/DX2 analytically  !
 ! A39   A(7,8,47)             111.3021         calculate D2E/DX2 analytically  !
 ! A40   A(33,8,46)            107.1239         calculate D2E/DX2 analytically  !
 ! A41   A(33,8,47)            109.4309         calculate D2E/DX2 analytically  !
 ! A42   A(46,8,47)            108.9729         calculate D2E/DX2 analytically  !
 ! A43   A(1,9,10)             117.9875         calculate D2E/DX2 analytically  !
 ! A44   A(1,9,14)             120.4555         calculate D2E/DX2 analytically  !
 ! A45   A(10,9,14)            121.3914         calculate D2E/DX2 analytically  !
 ! A46   A(4,10,9)             114.8103         calculate D2E/DX2 analytically  !
 ! A47   A(4,10,11)            123.9855         calculate D2E/DX2 analytically  !
 ! A48   A(9,10,11)            121.2042         calculate D2E/DX2 analytically  !
 ! A49   A(10,11,12)           118.1808         calculate D2E/DX2 analytically  !
 ! A50   A(10,11,43)           120.8644         calculate D2E/DX2 analytically  !
 ! A51   A(12,11,43)           120.9549         calculate D2E/DX2 analytically  !
 ! A52   A(11,12,13)           119.8624         calculate D2E/DX2 analytically  !
 ! A53   A(11,12,42)           120.0888         calculate D2E/DX2 analytically  !
 ! A54   A(13,12,42)           120.0487         calculate D2E/DX2 analytically  !
 ! A55   A(12,13,14)           118.741          calculate D2E/DX2 analytically  !
 ! A56   A(12,13,38)           120.0675         calculate D2E/DX2 analytically  !
 ! A57   A(14,13,38)           121.1914         calculate D2E/DX2 analytically  !
 ! A58   A(9,14,13)            120.6179         calculate D2E/DX2 analytically  !
 ! A59   A(9,14,20)            115.7388         calculate D2E/DX2 analytically  !
 ! A60   A(13,14,20)           123.6364         calculate D2E/DX2 analytically  !
 ! A61   A(1,15,16)            117.2984         calculate D2E/DX2 analytically  !
 ! A62   A(1,15,20)            120.195          calculate D2E/DX2 analytically  !
 ! A63   A(16,15,20)           121.2897         calculate D2E/DX2 analytically  !
 ! A64   A(15,16,17)           121.0852         calculate D2E/DX2 analytically  !
 ! A65   A(15,16,22)           115.1789         calculate D2E/DX2 analytically  !
 ! A66   A(17,16,22)           123.7305         calculate D2E/DX2 analytically  !
 ! A67   A(16,17,18)           118.3324         calculate D2E/DX2 analytically  !
 ! A68   A(16,17,35)           120.7728         calculate D2E/DX2 analytically  !
 ! A69   A(18,17,35)           120.894          calculate D2E/DX2 analytically  !
 ! A70   A(17,18,19)           119.8074         calculate D2E/DX2 analytically  !
 ! A71   A(17,18,37)           120.1194         calculate D2E/DX2 analytically  !
 ! A72   A(19,18,37)           120.07           calculate D2E/DX2 analytically  !
 ! A73   A(18,19,20)           118.6103         calculate D2E/DX2 analytically  !
 ! A74   A(18,19,41)           120.0679         calculate D2E/DX2 analytically  !
 ! A75   A(20,19,41)           121.314          calculate D2E/DX2 analytically  !
 ! A76   A(14,20,15)           115.6677         calculate D2E/DX2 analytically  !
 ! A77   A(14,20,19)           123.4578         calculate D2E/DX2 analytically  !
 ! A78   A(15,20,19)           120.8549         calculate D2E/DX2 analytically  !
 ! A79   A(1,21,22)            112.944          calculate D2E/DX2 analytically  !
 ! A80   A(1,21,25)            131.5041         calculate D2E/DX2 analytically  !
 ! A81   A(22,21,25)           113.0023         calculate D2E/DX2 analytically  !
 ! A82   A(16,22,21)           122.5889         calculate D2E/DX2 analytically  !
 ! A83   A(16,22,23)           124.0798         calculate D2E/DX2 analytically  !
 ! A84   A(21,22,23)           113.312          calculate D2E/DX2 analytically  !
 ! A85   A(22,23,24)            89.5332         calculate D2E/DX2 analytically  !
 ! A86   A(23,24,25)           111.2522         calculate D2E/DX2 analytically  !
 ! A87   A(23,24,36)           120.7342         calculate D2E/DX2 analytically  !
 ! A88   A(25,24,36)           128.0015         calculate D2E/DX2 analytically  !
 ! A89   A(21,25,24)           112.8953         calculate D2E/DX2 analytically  !
 ! A90   A(21,25,26)           120.8643         calculate D2E/DX2 analytically  !
 ! A91   A(24,25,26)           126.2258         calculate D2E/DX2 analytically  !
 ! A92   A(25,26,39)           111.3487         calculate D2E/DX2 analytically  !
 ! A93   A(25,26,40)           108.889          calculate D2E/DX2 analytically  !
 ! A94   A(25,26,44)           110.6894         calculate D2E/DX2 analytically  !
 ! A95   A(39,26,40)           109.4534         calculate D2E/DX2 analytically  !
 ! A96   A(39,26,44)           109.0713         calculate D2E/DX2 analytically  !
 ! A97   A(40,26,44)           107.2959         calculate D2E/DX2 analytically  !
 ! A98   A(1,27,29)             53.977          calculate D2E/DX2 analytically  !
 ! A99   A(1,27,30)            111.5649         calculate D2E/DX2 analytically  !
 ! A100  A(28,27,29)           103.6434         calculate D2E/DX2 analytically  !
 ! A101  A(28,27,30)           108.8753         calculate D2E/DX2 analytically  !
 ! A102  A(28,27,31)           109.304          calculate D2E/DX2 analytically  !
 ! A103  A(29,27,30)           109.9381         calculate D2E/DX2 analytically  !
 ! A104  A(29,27,31)           110.9503         calculate D2E/DX2 analytically  !
 ! A105  A(30,27,31)           113.6346         calculate D2E/DX2 analytically  !
 ! A106  L(1,27,31,29,-1)      164.9272         calculate D2E/DX2 analytically  !
 ! A107  L(1,27,31,29,-2)      130.7601         calculate D2E/DX2 analytically  !
 ! D1    D(3,1,2,32)           169.7681         calculate D2E/DX2 analytically  !
 ! D2    D(3,1,2,34)            41.091          calculate D2E/DX2 analytically  !
 ! D3    D(9,1,2,32)           103.848          calculate D2E/DX2 analytically  !
 ! D4    D(9,1,2,34)           -24.8291         calculate D2E/DX2 analytically  !
 ! D5    D(15,1,2,32)           34.2427         calculate D2E/DX2 analytically  !
 ! D6    D(15,1,2,34)          -94.4344         calculate D2E/DX2 analytically  !
 ! D7    D(21,1,2,32)          -30.6833         calculate D2E/DX2 analytically  !
 ! D8    D(21,1,2,34)         -159.3604         calculate D2E/DX2 analytically  !
 ! D9    D(27,1,2,32)          -92.3704         calculate D2E/DX2 analytically  !
 ! D10   D(27,1,2,34)          138.9525         calculate D2E/DX2 analytically  !
 ! D11   D(28,1,2,32)         -109.7328         calculate D2E/DX2 analytically  !
 ! D12   D(28,1,2,34)          121.5901         calculate D2E/DX2 analytically  !
 ! D13   D(2,1,3,4)           -116.3244         calculate D2E/DX2 analytically  !
 ! D14   D(2,1,3,7)             72.7981         calculate D2E/DX2 analytically  !
 ! D15   D(9,1,3,4)             -6.4667         calculate D2E/DX2 analytically  !
 ! D16   D(9,1,3,7)           -177.3442         calculate D2E/DX2 analytically  !
 ! D17   D(15,1,3,4)           -15.761          calculate D2E/DX2 analytically  !
 ! D18   D(15,1,3,7)           173.3615         calculate D2E/DX2 analytically  !
 ! D19   D(21,1,3,4)          -160.1823         calculate D2E/DX2 analytically  !
 ! D20   D(21,1,3,7)            28.9401         calculate D2E/DX2 analytically  !
 ! D21   D(27,1,3,4)           109.1145         calculate D2E/DX2 analytically  !
 ! D22   D(27,1,3,7)           -61.763          calculate D2E/DX2 analytically  !
 ! D23   D(28,1,3,4)           134.8265         calculate D2E/DX2 analytically  !
 ! D24   D(28,1,3,7)           -36.051          calculate D2E/DX2 analytically  !
 ! D25   D(2,1,9,10)            79.852          calculate D2E/DX2 analytically  !
 ! D26   D(2,1,9,14)          -104.7598         calculate D2E/DX2 analytically  !
 ! D27   D(3,1,9,10)             5.747          calculate D2E/DX2 analytically  !
 ! D28   D(3,1,9,14)          -178.8647         calculate D2E/DX2 analytically  !
 ! D29   D(15,1,9,10)          178.7793         calculate D2E/DX2 analytically  !
 ! D30   D(15,1,9,14)           -5.8325         calculate D2E/DX2 analytically  !
 ! D31   D(21,1,9,10)          167.5069         calculate D2E/DX2 analytically  !
 ! D32   D(21,1,9,14)          -17.1049         calculate D2E/DX2 analytically  !
 ! D33   D(27,1,9,10)          -87.2975         calculate D2E/DX2 analytically  !
 ! D34   D(27,1,9,14)           88.0908         calculate D2E/DX2 analytically  !
 ! D35   D(28,1,9,10)          -53.3866         calculate D2E/DX2 analytically  !
 ! D36   D(28,1,9,14)          122.0016         calculate D2E/DX2 analytically  !
 ! D37   D(2,1,15,16)          -83.4221         calculate D2E/DX2 analytically  !
 ! D38   D(2,1,15,20)          109.0172         calculate D2E/DX2 analytically  !
 ! D39   D(3,1,15,16)         -174.7005         calculate D2E/DX2 analytically  !
 ! D40   D(3,1,15,20)           17.7388         calculate D2E/DX2 analytically  !
 ! D41   D(9,1,15,16)          175.8412         calculate D2E/DX2 analytically  !
 ! D42   D(9,1,15,20)            8.2805         calculate D2E/DX2 analytically  !
 ! D43   D(21,1,15,16)         -12.5248         calculate D2E/DX2 analytically  !
 ! D44   D(21,1,15,20)         179.9145         calculate D2E/DX2 analytically  !
 ! D45   D(27,1,15,16)          61.0215         calculate D2E/DX2 analytically  !
 ! D46   D(27,1,15,20)        -106.5392         calculate D2E/DX2 analytically  !
 ! D47   D(28,1,15,16)          46.8799         calculate D2E/DX2 analytically  !
 ! D48   D(28,1,15,20)        -120.6809         calculate D2E/DX2 analytically  !
 ! D49   D(2,1,21,22)          123.3355         calculate D2E/DX2 analytically  !
 ! D50   D(2,1,21,25)          -76.4125         calculate D2E/DX2 analytically  !
 ! D51   D(3,1,21,22)          167.7945         calculate D2E/DX2 analytically  !
 ! D52   D(3,1,21,25)          -31.9535         calculate D2E/DX2 analytically  !
 ! D53   D(9,1,21,22)           24.3489         calculate D2E/DX2 analytically  !
 ! D54   D(9,1,21,25)         -175.3992         calculate D2E/DX2 analytically  !
 ! D55   D(15,1,21,22)          13.2605         calculate D2E/DX2 analytically  !
 ! D56   D(15,1,21,25)         173.5124         calculate D2E/DX2 analytically  !
 ! D57   D(27,1,21,22)         -95.6501         calculate D2E/DX2 analytically  !
 ! D58   D(27,1,21,25)          64.6018         calculate D2E/DX2 analytically  !
 ! D59   D(28,1,21,22)        -127.1499         calculate D2E/DX2 analytically  !
 ! D60   D(28,1,21,25)          33.102          calculate D2E/DX2 analytically  !
 ! D61   D(2,1,27,29)          163.8101         calculate D2E/DX2 analytically  !
 ! D62   D(2,1,27,30)           64.2562         calculate D2E/DX2 analytically  !
 ! D63   D(3,1,27,29)         -107.062          calculate D2E/DX2 analytically  !
 ! D64   D(3,1,27,30)          153.384          calculate D2E/DX2 analytically  !
 ! D65   D(9,1,27,29)          -33.9617         calculate D2E/DX2 analytically  !
 ! D66   D(9,1,27,30)         -133.5156         calculate D2E/DX2 analytically  !
 ! D67   D(15,1,27,29)          37.1717         calculate D2E/DX2 analytically  !
 ! D68   D(15,1,27,30)         -62.3823         calculate D2E/DX2 analytically  !
 ! D69   D(21,1,27,29)         102.9551         calculate D2E/DX2 analytically  !
 ! D70   D(21,1,27,30)           3.4011         calculate D2E/DX2 analytically  !
 ! D71   D(1,3,4,5)           -172.4771         calculate D2E/DX2 analytically  !
 ! D72   D(1,3,4,10)             7.2214         calculate D2E/DX2 analytically  !
 ! D73   D(7,3,4,5)              0.1056         calculate D2E/DX2 analytically  !
 ! D74   D(7,3,4,10)           179.8041         calculate D2E/DX2 analytically  !
 ! D75   D(1,3,7,6)            171.0802         calculate D2E/DX2 analytically  !
 ! D76   D(1,3,7,8)             -8.6081         calculate D2E/DX2 analytically  !
 ! D77   D(4,3,7,6)              0.0958         calculate D2E/DX2 analytically  !
 ! D78   D(4,3,7,8)           -179.5925         calculate D2E/DX2 analytically  !
 ! D79   D(3,4,5,6)             -0.2098         calculate D2E/DX2 analytically  !
 ! D80   D(10,4,5,6)          -179.9008         calculate D2E/DX2 analytically  !
 ! D81   D(3,4,10,9)            -2.0833         calculate D2E/DX2 analytically  !
 ! D82   D(3,4,10,11)          177.9789         calculate D2E/DX2 analytically  !
 ! D83   D(5,4,10,9)           177.5808         calculate D2E/DX2 analytically  !
 ! D84   D(5,4,10,11)           -2.357          calculate D2E/DX2 analytically  !
 ! D85   D(4,5,6,7)              0.2563         calculate D2E/DX2 analytically  !
 ! D86   D(4,5,6,45)           179.8101         calculate D2E/DX2 analytically  !
 ! D87   D(5,6,7,3)             -0.2529         calculate D2E/DX2 analytically  !
 ! D88   D(5,6,7,8)            179.4142         calculate D2E/DX2 analytically  !
 ! D89   D(45,6,7,3)          -179.7658         calculate D2E/DX2 analytically  !
 ! D90   D(45,6,7,8)            -0.0986         calculate D2E/DX2 analytically  !
 ! D91   D(3,7,8,33)            63.6532         calculate D2E/DX2 analytically  !
 ! D92   D(3,7,8,46)           -54.0634         calculate D2E/DX2 analytically  !
 ! D93   D(3,7,8,47)          -175.1173         calculate D2E/DX2 analytically  !
 ! D94   D(6,7,8,33)          -115.9894         calculate D2E/DX2 analytically  !
 ! D95   D(6,7,8,46)           126.2941         calculate D2E/DX2 analytically  !
 ! D96   D(6,7,8,47)             5.2401         calculate D2E/DX2 analytically  !
 ! D97   D(1,9,10,4)            -4.3309         calculate D2E/DX2 analytically  !
 ! D98   D(1,9,10,11)          175.6088         calculate D2E/DX2 analytically  !
 ! D99   D(14,9,10,4)         -179.6736         calculate D2E/DX2 analytically  !
 ! D100  D(14,9,10,11)           0.266          calculate D2E/DX2 analytically  !
 ! D101  D(1,9,14,13)         -175.7994         calculate D2E/DX2 analytically  !
 ! D102  D(1,9,14,20)            3.2782         calculate D2E/DX2 analytically  !
 ! D103  D(10,9,14,13)          -0.5705         calculate D2E/DX2 analytically  !
 ! D104  D(10,9,14,20)         178.5071         calculate D2E/DX2 analytically  !
 ! D105  D(4,10,11,12)        -179.9382         calculate D2E/DX2 analytically  !
 ! D106  D(4,10,11,43)           0.078          calculate D2E/DX2 analytically  !
 ! D107  D(9,10,11,12)           0.1279         calculate D2E/DX2 analytically  !
 ! D108  D(9,10,11,43)        -179.856          calculate D2E/DX2 analytically  !
 ! D109  D(10,11,12,13)         -0.2091         calculate D2E/DX2 analytically  !
 ! D110  D(10,11,12,42)        179.8882         calculate D2E/DX2 analytically  !
 ! D111  D(43,11,12,13)        179.7747         calculate D2E/DX2 analytically  !
 ! D112  D(43,11,12,42)         -0.1279         calculate D2E/DX2 analytically  !
 ! D113  D(11,12,13,14)         -0.0802         calculate D2E/DX2 analytically  !
 ! D114  D(11,12,13,38)        179.9532         calculate D2E/DX2 analytically  !
 ! D115  D(42,12,13,14)        179.8224         calculate D2E/DX2 analytically  !
 ! D116  D(42,12,13,38)         -0.1441         calculate D2E/DX2 analytically  !
 ! D117  D(12,13,14,9)           0.4727         calculate D2E/DX2 analytically  !
 ! D118  D(12,13,14,20)       -178.5293         calculate D2E/DX2 analytically  !
 ! D119  D(38,13,14,9)        -179.5611         calculate D2E/DX2 analytically  !
 ! D120  D(38,13,14,20)          1.4369         calculate D2E/DX2 analytically  !
 ! D121  D(9,14,20,15)           4.2003         calculate D2E/DX2 analytically  !
 ! D122  D(9,14,20,19)        -174.1954         calculate D2E/DX2 analytically  !
 ! D123  D(13,14,20,15)       -176.7531         calculate D2E/DX2 analytically  !
 ! D124  D(13,14,20,19)          4.8512         calculate D2E/DX2 analytically  !
 ! D125  D(1,15,16,17)        -169.0069         calculate D2E/DX2 analytically  !
 ! D126  D(1,15,16,22)          10.1777         calculate D2E/DX2 analytically  !
 ! D127  D(20,15,16,17)         -1.5907         calculate D2E/DX2 analytically  !
 ! D128  D(20,15,16,22)        177.594          calculate D2E/DX2 analytically  !
 ! D129  D(1,15,20,14)          -9.7715         calculate D2E/DX2 analytically  !
 ! D130  D(1,15,20,19)         168.6694         calculate D2E/DX2 analytically  !
 ! D131  D(16,15,20,14)       -176.8277         calculate D2E/DX2 analytically  !
 ! D132  D(16,15,20,19)          1.6132         calculate D2E/DX2 analytically  !
 ! D133  D(15,16,17,18)          0.5631         calculate D2E/DX2 analytically  !
 ! D134  D(15,16,17,35)       -179.7669         calculate D2E/DX2 analytically  !
 ! D135  D(22,16,17,18)       -178.5497         calculate D2E/DX2 analytically  !
 ! D136  D(22,16,17,35)          1.1203         calculate D2E/DX2 analytically  !
 ! D137  D(15,16,22,21)          3.1715         calculate D2E/DX2 analytically  !
 ! D138  D(15,16,22,23)       -175.1216         calculate D2E/DX2 analytically  !
 ! D139  D(17,16,22,21)       -177.6681         calculate D2E/DX2 analytically  !
 ! D140  D(17,16,22,23)          4.0388         calculate D2E/DX2 analytically  !
 ! D141  D(16,17,18,19)          0.405          calculate D2E/DX2 analytically  !
 ! D142  D(16,17,18,37)        179.7578         calculate D2E/DX2 analytically  !
 ! D143  D(35,17,18,19)       -179.2646         calculate D2E/DX2 analytically  !
 ! D144  D(35,17,18,37)          0.0882         calculate D2E/DX2 analytically  !
 ! D145  D(17,18,19,20)         -0.3814         calculate D2E/DX2 analytically  !
 ! D146  D(17,18,19,41)        178.6199         calculate D2E/DX2 analytically  !
 ! D147  D(37,18,19,20)       -179.7346         calculate D2E/DX2 analytically  !
 ! D148  D(37,18,19,41)         -0.7332         calculate D2E/DX2 analytically  !
 ! D149  D(18,19,20,14)        177.7021         calculate D2E/DX2 analytically  !
 ! D150  D(18,19,20,15)         -0.6135         calculate D2E/DX2 analytically  !
 ! D151  D(41,19,20,14)         -1.2862         calculate D2E/DX2 analytically  !
 ! D152  D(41,19,20,15)       -179.6018         calculate D2E/DX2 analytically  !
 ! D153  D(1,21,22,16)         -14.2075         calculate D2E/DX2 analytically  !
 ! D154  D(1,21,22,23)         164.2531         calculate D2E/DX2 analytically  !
 ! D155  D(25,21,22,16)       -178.2513         calculate D2E/DX2 analytically  !
 ! D156  D(25,21,22,23)          0.2093         calculate D2E/DX2 analytically  !
 ! D157  D(1,21,25,24)        -160.8793         calculate D2E/DX2 analytically  !
 ! D158  D(1,21,25,26)          17.8086         calculate D2E/DX2 analytically  !
 ! D159  D(22,21,25,24)         -0.6362         calculate D2E/DX2 analytically  !
 ! D160  D(22,21,25,26)        178.0516         calculate D2E/DX2 analytically  !
 ! D161  D(16,22,23,24)        178.6313         calculate D2E/DX2 analytically  !
 ! D162  D(21,22,23,24)          0.1973         calculate D2E/DX2 analytically  !
 ! D163  D(22,23,24,25)         -0.5427         calculate D2E/DX2 analytically  !
 ! D164  D(22,23,24,36)       -179.3748         calculate D2E/DX2 analytically  !
 ! D165  D(23,24,25,21)          0.7744         calculate D2E/DX2 analytically  !
 ! D166  D(23,24,25,26)       -177.8293         calculate D2E/DX2 analytically  !
 ! D167  D(36,24,25,21)        179.5004         calculate D2E/DX2 analytically  !
 ! D168  D(36,24,25,26)          0.8967         calculate D2E/DX2 analytically  !
 ! D169  D(21,25,26,39)        172.7391         calculate D2E/DX2 analytically  !
 ! D170  D(21,25,26,40)        -66.486          calculate D2E/DX2 analytically  !
 ! D171  D(21,25,26,44)         51.2314         calculate D2E/DX2 analytically  !
 ! D172  D(24,25,26,39)         -8.7594         calculate D2E/DX2 analytically  !
 ! D173  D(24,25,26,40)        112.0155         calculate D2E/DX2 analytically  !
 ! D174  D(24,25,26,44)       -130.2671         calculate D2E/DX2 analytically  !
 --------------------------------------------------------------------------------
 Trust Radius=3.00D-01 FncErr=1.00D-07 GrdErr=1.00D-07 EigMax=2.50D+02 EigMin=1.00D-04
 Number of steps in this run=      2 maximum allowed number of steps=      2.
 GradGradGradGradGradGradGradGradGradGradGradGradGradGradGradGradGradGrad

 Leave Link  103 at Tue Jul  6 00:47:39 2021, MaxMem=  3355443200 cpu:               0.4 elap:               0.1
 (Enter /cluster/software/Gaussian/g16_C.01/l202.exe)
                          Input orientation:                          
 ---------------------------------------------------------------------
 Center     Atomic      Atomic             Coordinates (Angstroms)
 Number     Number       Type             X           Y           Z
 ---------------------------------------------------------------------
      1         48           0        9.281542    8.650728    8.743354
      2          8           0        8.015225    9.387033   10.690460
      3          7           0        7.057286    8.342470    7.887144
      4          6           0        6.740541    7.084630    7.605410
      5         16           0        5.209213    6.926643    6.798721
      6          6           0        5.014769    8.638908    6.865854
      7          6           0        6.101884    9.246554    7.480496
      8          6           0        6.290098   10.711384    7.705273
      9          7           0        8.784886    6.305415    8.525248
     10          6           0        7.620446    5.957572    7.947358
     11          6           0        7.301597    4.605967    7.702081
     12          6           0        8.229960    3.629053    8.078972
     13          6           0        9.439535    4.009446    8.678604
     14          6           0        9.691239    5.380499    8.886308
     15          7           0       10.998483    7.239098    9.673174
     16          6           0       12.104133    7.842254   10.146028
     17          6           0       13.249518    7.094829   10.494442
     18          6           0       13.213328    5.707211   10.325018
     19          6           0       12.058818    5.097124    9.811525
     20          6           0       10.954946    5.909059    9.485754
     21          7           0       10.918653    9.982510    9.955219
     22          6           0       12.023320    9.305473   10.246547
     23         16           0       13.352036   10.324276   10.709833
     24          6           0       12.347241   11.707003   10.498271
     25          6           0       11.073596   11.344488   10.080946
     26          6           0        9.953085   12.276585    9.754155
     27         17           0       10.645586   10.015032    6.449825
     28          8           0        9.343740   10.448304    7.218424
     29          8           0       10.861365    8.552000    6.894691
     30          8           0       11.776805   10.855668    6.910494
     31          8           0       10.403908   10.094028    5.000880
     32          1           0        8.568848    9.511374   11.485241
     33          1           0        7.169900   11.067166    7.130624
     34          1           0        7.209493    8.930373   10.998718
     35          1           0       14.149312    7.592847   10.884116
     36          1           0       12.739577   12.716301   10.669978
     37          1           0       14.090670    5.096720   10.583311
     38          1           0       10.169760    3.245978    8.976242
     39          1           0       10.201337   13.316478   10.031244
     40          1           0        9.747709   12.223397    8.665672
     41          1           0       12.033819    4.010959    9.655538
     42          1           0        8.012657    2.565364    7.904085
     43          1           0        6.349256    4.328119    7.227279
     44          1           0        9.025482   11.973322   10.279745
     45          1           0        4.121174    9.117354    6.447439
     46          1           0        6.496672   10.912009    8.776103
     47          1           0        5.395751   11.282496    7.398958
 ---------------------------------------------------------------------
                    Distance matrix (angstroms):
                    1          2          3          4          5
     1  Cd   0.000000
     2  O    2.436581   0.000000
     3  N    2.403213   3.141232   0.000000
     4  C    3.194411   4.055048   1.327352   0.000000
     5  S    4.830934   5.391925   2.569942   1.738008   0.000000
     6  C    4.661598   4.918337   2.302778   2.437419   1.724577
     7  C    3.472757   3.739582   1.376780   2.257742   2.577531
     8  C    3.777917   3.693414   2.496680   3.655984   4.039110
     9  N    2.407224   3.844073   2.746155   2.373315   4.018987
    10  C    3.262811   4.409270   2.451227   1.470177   2.841216
    11  C    4.622177   5.683157   3.749052   2.543207   3.252640
    12  C    5.173436   6.326161   4.860890   3.792577   4.651672
    13  C    4.644421   5.915629   5.007655   4.230020   5.471711
    14  C    3.298891   4.702798   4.087702   3.640245   5.180458
    15  N    2.409388   3.814227   4.465463   4.735988   6.471147
    16  C    3.253943   4.404761   5.551886   5.983047   7.718985
    17  C    4.607816   5.717556   6.833618   7.121333   8.850601
    18  C    5.159932   6.379257   7.126336   7.154756   8.831061
    19  C    4.634905   5.960410   6.265048   6.091075   7.703325
    20  C    3.296694   4.710582   4.865059   4.762234   6.424101
    21  N    2.433597   3.053698   4.677267   5.601423   7.204131
    22  C    3.194625   4.033427   5.581724   6.309952   7.998649
    23  S    4.820449   5.418519   7.177674   7.990283   9.651231
    24  C    4.671088   4.917882   6.791295   7.821129   9.353606
    25  C    3.500994   3.681952   5.473173   6.561253   8.042471
    26  C    3.823550   3.602982   5.229593   6.472553   7.736975
    27  Cl   2.997035   5.029530   4.211799   5.017172   6.262110
    28  O    2.358084   3.866043   3.179560   4.270914   5.447252
    29  O    2.433751   4.817225   3.936989   4.431647   5.881991
    30  O    3.800984   5.531232   5.435428   6.329897   7.653953
    31  O    4.165204   6.211036   4.753773   5.409280   6.344242
    32  H    2.960843   0.976543   4.073998   4.927970   6.319134
    33  H    3.591532   4.026146   2.830013   4.033654   4.593297
    34  H    3.075428   0.976097   3.170282   3.891173   5.065178
    35  H    5.421915   6.394031   7.735671   8.117764   9.851885
    36  H    5.674396   5.779614   7.691748   8.780417  10.257345
    37  H    6.256527   7.438367   8.201993   8.175823   9.826088
    38  H    5.482197   6.730017   6.070243   5.326723   6.549498
    39  H    4.926856   4.544688   6.262825   7.529788   8.729289
    40  H    3.603791   3.891816   4.786030   6.047656   7.220738
    41  H    5.471249   6.791343   6.830453   6.455174   7.952224
    42  H    6.272646   7.368790   5.855593   4.704386   5.301120
    43  H    5.438908   6.353085   4.129375   2.809704   2.869789
    44  H    3.669564   2.806812   4.772989   6.022652   7.221524
    45  H    5.667306   5.765378   3.360647   3.511971   2.471121
    46  H    3.587473   2.880332   2.776160   4.009841   4.631493
    47  H    4.881902   4.613936   3.412151   4.412840   4.400969
                    6          7          8          9         10
     6  C    0.000000
     7  C    1.388826   0.000000
     8  C    2.574149   1.493880   0.000000
     9  N    4.734190   4.115860   5.129219   0.000000
    10  C    3.892142   3.652587   4.942384   1.345686   0.000000
    11  C    4.710995   4.798277   6.188640   2.401223   1.410199
    12  C    6.075175   6.036820   7.352695   2.769479   2.410566
    13  C    6.655564   6.324767   7.468755   2.392396   2.763874
    14  C    6.047217   5.459502   6.432802   1.344363   2.345810
    15  N    6.756134   5.728385   6.172382   2.662613   4.003983
    16  C    7.851960   6.715959   6.927640   4.000776   5.337567
    17  C    9.130275   8.049997   8.324209   4.943059   6.282311
    18  C    9.368940   8.437469   8.935096   4.817481   6.082456
    19  C    8.416640   7.624731   8.320718   3.719288   4.890259
    20  C    7.042844   6.221908   6.927716   2.405999   3.672588
    21  N    6.797447   5.465084   5.197792   4.485400   5.577616
    22  C    7.809813   6.535894   6.426857   4.738214   5.989992
    23  S    9.334166   8.009669   7.684283   6.463940   7.716897
    24  C    8.739154   7.359705   6.743966   6.764639   7.868018
    25  C    7.373355   5.990124   5.378336   5.748969   6.745021
    26  C    6.779524   5.402070   4.479425   6.207236   6.973926
    27  Cl   5.811445   4.722083   4.585993   4.640134   5.277979
    28  O    4.705126   3.467350   3.103380   4.379913   4.864953
    29  O    5.847313   4.845434   5.120202   3.466645   4.282841
    30  O    7.116260   5.926118   5.545850   5.680125   6.507054
    31  O    5.885433   5.037272   4.961684   5.421807   5.791344
    32  H    5.893337   4.711054   4.573936   4.368799   5.103488
    33  H    3.257473   2.139555   1.109439   5.217991   5.194035
    34  H    4.688532   3.701980   3.855394   3.935775   4.279863
    35  H   10.033970   8.892720   9.033137   5.999901   7.343348
    36  H    9.527284   8.140694   7.375971   7.831916   8.904974
    37  H   10.427778   9.522042  10.032770   5.817896   7.039397
    38  H    7.753152   7.402147   8.508786   3.388425   3.861392
    39  H    7.668105   6.314753   5.243515   7.309539   8.071993
    40  H    6.203921   4.853687   3.894050   5.997438   6.655959
    41  H    8.858178   8.205493   9.038228   4.134931   5.117132
    42  H    6.852239   6.961952   8.328528   3.869129   3.415080
    43  H    4.527072   4.931157   6.401410   3.395101   2.188505
    44  H    6.233682   4.880419   3.962666   5.938124   6.603287
    45  H    1.096582   2.237657   2.971078   5.828764   4.947614
    46  H    3.318445   2.146671   1.108873   5.149714   5.147439
    47  H    2.723583   2.156463   1.104469   6.125855   5.796967
                   11         12         13         14         15
    11  C    0.000000
    12  C    1.399380   0.000000
    13  C    2.424916   1.402615   0.000000
    14  C    2.777172   2.419647   1.409355   0.000000
    15  N    4.948288   4.820645   3.721577   2.404669   0.000000
    16  C    6.285761   6.085474   4.893243   3.670039   1.345307
    17  C    7.026342   6.560644   5.228080   4.264547   2.400511
    18  C    6.560572   5.847856   4.453605   3.818604   2.770761
    19  C    5.227059   4.451643   3.054046   2.557685   2.394056
    20  C    4.269251   3.821389   2.560564   1.495214   1.343885
    21  N    6.860536   7.149531   6.284507   4.881355   2.759028
    22  C    7.131222   7.163079   6.097728   4.763850   2.376753
    23  S    8.851748   8.830804   7.701340   6.416199   4.016491
    24  C    9.148875   9.383937   8.427237   7.048221   4.739421
    25  C    8.080510   8.462984   7.644577   6.237566   4.126275
    26  C    8.371367   8.975255   8.352612   6.955410   5.145454
    27  Cl   6.481389   7.019266   6.518365   5.322230   4.268527
    28  O    6.207832   6.962990   6.603044   5.346517   4.366116
    29  O    5.375408   5.706332   5.083183   3.923539   3.076114
    30  O    7.727410   8.134458   7.447133   6.183114   4.617116
    31  O    6.858544   7.483087   7.174803   6.149943   5.507674
    32  H    6.323073   6.805822   6.237509   5.007828   3.788133
    33  H    6.487758   7.572887   7.573566   6.463572   5.981363
    34  H    5.438455   6.137610   5.879757   4.819020   4.355907
    35  H    8.120222   7.656319   6.315619   5.362847   3.394001
    36  H   10.205761  10.470340   9.521825   8.141733   5.833076
    37  H    7.391471   6.540159   5.142288   4.723911   3.870369
    38  H    3.420441   2.171328   1.097588   2.189349   4.137330
    39  H    9.471351  10.076898   9.435614   8.034353   6.139886
    40  H    8.058363   8.747029   8.219740   6.846687   5.236672
    41  H    5.154023   4.135306   2.772131   2.820467   3.390150
    42  H    2.170362   1.099655   2.172840   3.421606   5.821393
    43  H    1.099813   2.179706   3.428953   3.876691   6.005956
    44  H    7.993376   8.666203   8.133782   6.771278   5.164643
    45  H    5.660550   7.047373   7.704141   7.137072   7.824997
    46  H    6.447293   7.518757   7.504353   6.388662   5.878886
    47  H    6.949832   8.189648   8.419438   7.449630   7.274045
                   16         17         18         19         20
    16  C    0.000000
    17  C    1.411362   0.000000
    18  C    2.412625   1.398391   0.000000
    19  C    2.765806   2.423833   1.403130   0.000000
    20  C    2.343893   2.772825   2.417725   1.408509   0.000000
    21  N    2.454072   3.749986   4.866258   5.018727   4.100576
    22  C    1.468893   2.540071   3.790748   4.230922   3.640859
    23  S    2.834708   3.238245   4.635150   5.459165   5.170933
    24  C    3.888375   4.699603   6.064456   6.651714   6.048126
    25  C    3.651285   4.792203   6.034643   6.330308   5.469207
    26  C    4.944074   6.185878   7.356069   7.482116   6.451446
    27  Cl   4.528824   5.627342   6.337803   6.122424   5.115817
    28  O    4.793968   6.101900   6.863133   6.536891   5.323675
    29  O    3.552380   4.559038   5.039017   4.677391   3.702365
    30  O    4.433564   5.399766   6.342648   6.454172   5.637052
    31  O    5.868032   6.875457   7.448721   7.130924   6.158872
    32  H    4.132517   5.360041   6.114652   5.870844   4.761102
    33  H    6.621131   8.003529   8.686558   8.168852   6.817572
    34  H    5.086117   6.332884   6.847532   6.294377   5.044385
    35  H    2.188546   1.099772   2.178137   3.427718   3.872277
    36  H    4.943141   5.647282   7.033547   7.697546   7.136234
    37  H    3.416943   2.169763   1.099610   2.173494   3.420130
    38  H    5.122104   5.157857   4.140069   2.773622   2.822786
    39  H    5.796631   6.943693   8.188976   8.429489   7.465611
    40  H    5.190241   6.473737   7.564696   7.578784   6.480804
    41  H    3.863204   3.419348   2.171800   1.097594   2.189881
    42  H    7.043582   7.392612   6.540573   5.139996   4.726419
    43  H    7.347574   8.120507   7.655936   6.314173   5.367724
    44  H    5.153804   6.456645   7.536859   7.530102   6.413154
    45  H    8.890055  10.188007  10.456192   9.512387   8.137872
    46  H    6.537867   7.945091   8.637275   8.113103   6.738644
    47  H    8.023967   9.423387  10.037935   9.406155   8.008320
                   21         22         23         24         25
    21  N    0.000000
    22  C    1.327983   0.000000
    23  S    2.570525   1.737262   0.000000
    24  C    2.304266   2.436316   1.722296   0.000000
    25  C    1.376516   2.255433   2.574416   1.388434   0.000000
    26  C    2.497104   3.654563   4.034563   2.571015   1.493701
    27  Cl   3.516164   4.100819   5.056498   4.706199   3.890461
    28  O    3.191764   4.201873   5.317119   4.621984   3.462597
    29  O    3.378827   3.626678   4.888733   5.014743   4.242080
    30  O    3.281643   3.686885   4.147133   3.731262   3.284085
    31  O    4.982255   5.546289   6.429356   6.049755   5.274391
    32  H    2.843330   3.675614   4.913344   4.480084   3.406775
    33  H    4.817464   6.030607   7.182021   6.209291   4.901036
    34  H    3.994215   4.886655   6.305335   5.861449   4.647747
    35  H    4.124379   2.803467   2.850742   4.508061   4.917308
    36  H    3.361585   3.510849   2.469509   1.096400   2.237034
    37  H    5.858936   4.701164   5.280997   6.836857   6.956271
    38  H    6.848365   6.462727   7.952014   8.868311   8.223330
    39  H    3.411108   4.410684   4.397801   2.722761   2.156861
    40  H    2.838241   4.023909   4.558116   3.222212   2.129192
    41  H    6.082173   5.327409   6.535075   7.748389   7.408350
    42  H    8.225936   8.185451   9.827609  10.444519   9.548879
    43  H    7.764868   8.129270   9.854999  10.056000   8.927051
    44  H    2.766359   4.013172   4.650096   3.339575   2.151680
    45  H    7.697969   8.769978  10.238822   9.528048   8.154672
    46  H    4.669925   5.940286   7.147080   6.150369   4.778900
    47  H    6.223092   7.479441   8.670787   7.622936   6.279716
                   26         27         28         29         30
    26  C    0.000000
    27  Cl   4.063592   0.000000
    28  O    3.184940   1.572664   0.000000
    29  O    4.782681   1.544322   2.450297   0.000000
    30  O    3.664884   1.482748   2.486075   2.478944   0.000000
    31  O    5.249802   1.471084   2.483338   2.484680   2.472158
    32  H    3.543891   5.470094   4.436669   5.220075   5.746863
    33  H    4.011449   3.694708   2.261920   4.473102   4.617008
    34  H    4.502596   5.803073   4.598886   5.506576   6.425005
    35  H    6.389252   6.148659   6.684643   5.257954   5.662549
    36  H    2.965909   5.430593   5.346843   5.926370   4.303790
    37  H    8.328119   7.290000   7.905394   5.997773   7.211729
    38  H    9.066640   7.240807   7.459607   5.741520   8.047191
    39  H    1.104438   4.891161   4.107779   5.742286   4.275134
    40  H    1.108965   3.254694   2.325655   4.225607   3.011406
    41  H    8.524070   6.946415   7.390227   5.442240   7.379117
    42  H   10.074514   8.033974   8.023880   6.706253   9.158885
    43  H    9.085747   7.169649   6.813492   6.189581   8.495147
    44  H    1.108450   4.596512   3.434917   5.151165   4.491190
    45  H    7.411228   6.585877   5.444359   6.778631   7.864149
    46  H    3.842583   4.840416   3.278290   5.306590   5.600311
    47  H    5.225367   5.483437   4.039194   6.130484   6.413941
                   31         32         33         34         35
    31  O    0.000000
    32  H    6.764161   0.000000
    33  H    3.992695   4.831173   0.000000
    34  H    6.894377   1.556314   4.419231   0.000000
    35  H    7.409211   5.931583   8.652848   7.068466   0.000000
    36  H    6.668607   5.322705   6.802056   6.709929   5.318175
    37  H    8.350379   7.126932   9.770585   7.887969   2.514870
    38  H    7.921749   6.936367   8.577671   6.720561   6.194520
    39  H    5.977439   4.388387   4.760526   5.396763   7.005273
    40  H    4.288998   4.085922   3.215329   4.767563   6.762958
    41  H    7.831103   6.753400   8.934370   7.019893   4.337584
    42  H    8.415905   7.834608   8.578410   7.122862   8.474356
    43  H    7.392074   7.065618   6.789518   6.012030   9.212588
    44  H    5.770461   2.779015   3.765802   3.615837   6.768121
    45  H    6.520672   6.731753   3.682830   5.503345  11.071213
    46  H    5.494351   3.687156   1.784632   3.061864   8.603688
    47  H    5.678457   5.468375   1.807201   4.666949  10.118531
                   36         37         38         39         40
    36  H    0.000000
    37  H    7.738926   0.000000
    38  H    9.957897   4.624008   0.000000
    39  H    2.685303   9.110220  10.125660   0.000000
    40  H    3.634758   8.563187   8.992699   1.807039   0.000000
    41  H    8.792620   2.504052   2.126348   9.491672   8.581974
    42  H   11.534099   7.108324   2.503168  11.175937   9.842155
    43  H   11.092788   8.472496   4.338911  10.173069   8.715152
    44  H    3.807728   8.546106   8.898035   1.802347   1.785884
    45  H   10.249834  11.517889   8.800755   8.212471   6.798967
    46  H    6.768758   9.734083   8.502920   4.591448   3.507303
    47  H    8.166219  11.135777   9.479694   5.844627   4.629190
                   41         42         43         44         45
    41  H    0.000000
    42  H    4.618125   0.000000
    43  H    6.189611   2.516400   0.000000
    44  H    8.534574   9.755985   8.656146   0.000000
    45  H    9.948724   7.758480   5.339407   6.848019   0.000000
    46  H    8.891450   8.527901   6.765219   3.127652   3.779742
    47  H   10.101057   9.115466   7.021538   4.685203   2.686591
                   46         47
    46  H    0.000000
    47  H    1.801615   0.000000
 Stoichiometry    C18H16CdClN4O5S2(1+)
 Framework group  C1[X(C18H16CdClN4O5S2)]
 Deg. of freedom   135
 Full point group                 C1      NOp   1
 RotChk:  IX=0 Diff= 1.15D-15
 Largest Abelian subgroup         C1      NOp   1
 Largest concise Abelian subgroup C1      NOp   1
                         Standard orientation:                         
 ---------------------------------------------------------------------
 Center     Atomic      Atomic             Coordinates (Angstroms)
 Number     Number       Type             X           Y           Z
 ---------------------------------------------------------------------
      1         48           0       -0.106076   -0.278587   -0.332310
      2          8           0       -0.170725   -0.845567   -2.701124
      3          7           0       -2.392952   -1.000996   -0.486426
      4          6           0       -3.291283   -0.056813   -0.234670
      5         16           0       -4.918379   -0.662092   -0.151817
      6          6           0       -4.328168   -2.249065   -0.479436
      7          6           0       -2.947436   -2.253080   -0.629106
      8          6           0       -2.088135   -3.443012   -0.907209
      9          7           0       -1.595504    1.597966   -0.098041
     10          6           0       -2.917344    1.351959   -0.042436
     11          6           0       -3.844646    2.389592    0.185798
     12          6           0       -3.354127    3.689685    0.351375
     13          6           0       -1.973161    3.927918    0.292157
     14          6           0       -1.106739    2.839449    0.066697
     15          7           0        1.050535    1.834320   -0.277272
     16          6           0        2.395382    1.802082   -0.291358
     17          6           0        3.154882    2.962981   -0.031715
     18          6           0        2.474689    4.150985    0.253731
     19          6           0        1.071925    4.161548    0.284024
     20          6           0        0.382450    2.963161    0.014971
     21          7           0        2.250483   -0.580998   -0.859162
     22          6           0        2.986054    0.487084   -0.573372
     23         16           0        4.690796    0.155642   -0.527752
     24          6           0        4.366931   -1.490301   -0.917992
     25          6           0        3.003666   -1.716978   -1.051681
     26          6           0        2.351112   -3.029328   -1.339872
     27         17           0        0.813861   -1.659551    2.163461
     28          8           0        0.179509   -2.287688    0.868737
     29          8           0        0.526151   -0.149611    2.014347
     30          8           0        2.276932   -1.899656    2.145771
     31          8           0        0.140413   -2.208620    3.350508
     32          1           0        0.621615   -0.550018   -3.189474
     33          1           0       -1.402499   -3.616254   -0.052374
     34          1           0       -0.930381   -0.628783   -3.274442
     35          1           0        4.254082    2.931636   -0.048303
     36          1           0        5.184163   -2.215146   -1.011931
     37          1           0        3.037285    5.071991    0.464391
     38          1           0       -1.584812    4.946415    0.420801
     39          1           0        3.097829   -3.802562   -1.593459
     40          1           0        1.777393   -3.348908   -0.446273
     41          1           0        0.534129    5.086243    0.529844
     42          1           0       -4.049496    4.522808    0.529161
     43          1           0       -4.923648    2.181840    0.232511
     44          1           0        1.630822   -2.933100   -2.176881
     45          1           0       -5.016404   -3.100675   -0.539305
     46          1           0       -1.456789   -3.260287   -1.800301
     47          1           0       -2.698445   -4.347582   -1.077877
 ---------------------------------------------------------------------
 Rotational constants (GHZ):           0.1656566           0.1129692           0.0840086
 Leave Link  202 at Tue Jul  6 00:47:40 2021, MaxMem=  3355443200 cpu:               0.3 elap:               0.1
 (Enter /cluster/software/Gaussian/g16_C.01/l301.exe)
 Standard basis: def2SVP (5D, 7F)
 Ernie: Thresh=  0.10000D-02 Tol=  0.10000D-05 Strict=F.
 There are   578 symmetry adapted cartesian basis functions of A   symmetry.
 There are   543 symmetry adapted basis functions of A   symmetry.
   543 basis functions,   963 primitive gaussians,   578 cartesian basis functions
   130 alpha electrons      130 beta electrons
       nuclear repulsion energy      4329.9128036379 Hartrees.
 IExCor= 1009 DFT=T Ex=PBE Corr=PBE ExCW=0 ScaHFX=  0.000000
 ScaDFX=  1.000000  1.000000  1.000000  1.000000 ScalE2=  1.000000  1.000000
 IRadAn=      5 IRanWt=     -1 IRanGd=            0 ICorTp=0 IEmpDi=141
 NAtoms=   47 NActive=   47 NUniq=   47 SFac= 1.00D+00 NAtFMM=   60 NAOKFM=F Big=F
 Integral buffers will be    131072 words long.
 Raffenetti 2 integral format.
 Two-electron integral symmetry is turned on.
 R6Disp:  Grimme-D3(BJ) Dispersion energy=       -0.0815876275 Hartrees.
 Nuclear repulsion after empirical dispersion term =     4329.8312160105 Hartrees.
 Leave Link  301 at Tue Jul  6 00:47:40 2021, MaxMem=  3355443200 cpu:               1.5 elap:               0.1
 (Enter /cluster/software/Gaussian/g16_C.01/l302.exe)
 NPDir=0 NMtPBC=     1 NCelOv=     1 NCel=       1 NClECP=     1 NCelD=      1
         NCelK=      1 NCelE2=     1 NClLst=     1 CellRange=     0.0.
 One-electron integrals computed using PRISM.
 One-electron integral symmetry used in STVInt
   1 Symmetry operations used in ECPInt.
 ECPInt:  NShTT=   30135 NPrTT=  114486 LenC2=   26170 LenP2D=   64158.
 LDataN:  DoStor=T MaxTD1= 7 Len=  274
 NBasis=   543 RedAO= T EigKep=  4.26D-04  NBF=   543
 NBsUse=   543 1.00D-06 EigRej= -1.00D+00 NBFU=   543
 Precomputing XC quadrature grid using
 IXCGrd= 4 IRadAn=           5 IRanWt=          -1 IRanGd=           0 AccXCQ= 0.00D+00.
 Defaulting to unpruned grid for atomic number  48.
 Generated NRdTot=       0 NPtTot=           0 NUsed=           0 NTot=          32
 NSgBfM=   573   573   573   573   573 MxSgAt=    47 MxSgA2=    47.
 Leave Link  302 at Tue Jul  6 00:47:42 2021, MaxMem=  3355443200 cpu:              21.3 elap:               1.1
 (Enter /cluster/software/Gaussian/g16_C.01/l303.exe)
 DipDrv:  MaxL=1.
 Leave Link  303 at Tue Jul  6 00:47:44 2021, MaxMem=  3355443200 cpu:               2.0 elap:               0.2
 (Enter /cluster/software/Gaussian/g16_C.01/l401.exe)
 Initial guess from the checkpoint file:  "LALMER.chk"
 B after Tr=    -0.000000   -0.000000    0.000000
         Rot=    1.000000   -0.000000    0.000000   -0.000000 Ang=   0.00 deg.
 Guess basis will be translated and rotated to current coordinates.
 JPrj=2 DoOrth=T DoCkMO=T.
 Leave Link  401 at Tue Jul  6 00:47:46 2021, MaxMem=  3355443200 cpu:              14.9 elap:               0.8
 (Enter /cluster/software/Gaussian/g16_C.01/l502.exe)
 Integral symmetry usage will be decided dynamically.
 Closed shell SCF:
 Using DIIS extrapolation, IDIIS=  1040.
 NGot=  3355443200 LenX=  3354756230 LenY=  3354421568
 Requested convergence on RMS density matrix=1.00D-08 within 128 cycles.
 Requested convergence on MAX density matrix=1.00D-06.
 Requested convergence on             energy=1.00D-06.
 No special actions if energy rises.
 Fock matrices will be formed incrementally for  20 cycles.

 Cycle   1  Pass 1  IDiag  1:
 FoFJK:  IHMeth= 1 ICntrl=     500 DoSepK=F KAlg= 0 I1Cent=           0 FoldK=F
 IRaf= 790000000 NMat=       1 IRICut=       1 DoRegI=T DoRafI=F ISym2E= 0 IDoP0=0 IntGTp=1.
 FoFCou: FMM=F IPFlag=           0 FMFlag=      100000 FMFlg1=           0
         NFxFlg=           0 DoJE=T BraDBF=F KetDBF=F FulRan=T
         wScrn=  0.000000 ICntrl=       500 IOpCl=  0 I1Cent=           0 NGrid=           0
         NMat0=    1 NMatS0=      1 NMatT0=    0 NMatD0=    1 NMtDS0=    0 NMtDT0=    0
 Symmetry not used in FoFCou.
 Defaulting to unpruned grid for atomic number  48.
 Defaulting to unpruned grid for atomic number  48.
 Defaulting to unpruned grid for atomic number  48.
 Defaulting to unpruned grid for atomic number  48.
 Defaulting to unpruned grid for atomic number  48.
 Defaulting to unpruned grid for atomic number  48.
 Defaulting to unpruned grid for atomic number  48.
 Defaulting to unpruned grid for atomic number  48.
 Defaulting to unpruned grid for atomic number  48.
 Defaulting to unpruned grid for atomic number  48.
 Defaulting to unpruned grid for atomic number  48.
 Defaulting to unpruned grid for atomic number  48.
 Defaulting to unpruned grid for atomic number  48.
 Defaulting to unpruned grid for atomic number  48.
 Defaulting to unpruned grid for atomic number  48.
 Defaulting to unpruned grid for atomic number  48.
 Defaulting to unpruned grid for atomic number  48.
 Defaulting to unpruned grid for atomic number  48.
 Defaulting to unpruned grid for atomic number  48.
 Defaulting to unpruned grid for atomic number  48.
 E= -2711.31113930327    
 DIIS: error= 2.07D-08 at cycle   1 NSaved=   1.
 NSaved= 1 IEnMin= 1 EnMin= -2711.31113930327     IErMin= 1 ErrMin= 2.07D-08
 ErrMax= 2.07D-08  0.00D+00 EMaxC= 1.00D-01 BMatC= 4.34D-13 BMatP= 4.34D-13
 IDIUse=1 WtCom= 1.00D+00 WtEn= 0.00D+00
 Coeff-Com:  0.100D+01
 Coeff:      0.100D+01
 Gap=     0.088 Goal=   None    Shift=    0.000
 RMSDP=5.03D-09 MaxDP=4.57D-07              OVMax= 7.38D-07

 SCF Done:  E(RPBE-PBE) =  -2711.31113930     A.U. after    1 cycles
            NFock=  1  Conv=0.50D-08     -V/T= 2.0455
 KE= 2.593237577864D+03 PE=-1.497854720164D+04 EE= 5.344167268465D+03
 Leave Link  502 at Tue Jul  6 00:47:54 2021, MaxMem=  3355443200 cpu:             140.4 elap:               7.4
 (Enter /cluster/software/Gaussian/g16_C.01/l801.exe)
 DoSCS=F DFT=T ScalE2(SS,OS)=  1.000000  1.000000
 Range of M.O.s used for correlation:     1   543
 NBasis=   543 NAE=   130 NBE=   130 NFC=     0 NFV=     0
 NROrb=    543 NOA=   130 NOB=   130 NVA=   413 NVB=   413

 **** Warning!!: The smallest alpha delta epsilon is  0.88065655D-01

 Leave Link  801 at Tue Jul  6 00:48:00 2021, MaxMem=  3355443200 cpu:              14.8 elap:               1.9
 (Enter /cluster/software/Gaussian/g16_C.01/l1101.exe)
 Using compressed storage, NAtomX=    47.
 Will process     48 centers per pass.
   1 Symmetry operations used in ECPInt.
 ECPInt:  NShTT=   30135 NPrTT=  114486 LenC2=   26170 LenP2D=   64158.
 LDataN:  DoStor=T MaxTD1= 8 Len=  415
 Number of processors reduced to  11 by ecpmxn.
 R6Disp: Adding Grimme-D3(BJ) dispersion energy 1st derivatives to the gradient.
 Leave Link 1101 at Tue Jul  6 00:48:08 2021, MaxMem=  3355443200 cpu:              47.4 elap:               2.8
 (Enter /cluster/software/Gaussian/g16_C.01/l1102.exe)
 Symmetrizing basis deriv contribution to polar:
 IMax=3 JMax=2 DiffMx= 0.00D+00
 Leave Link 1102 at Tue Jul  6 00:48:09 2021, MaxMem=  3355443200 cpu:               3.0 elap:               0.4
 (Enter /cluster/software/Gaussian/g16_C.01/l1110.exe)
 Forming Gx(P) for the SCF density, NAtomX=    47.
 Integral derivatives from FoFJK, PRISM(SPDF).
 Do as many integral derivatives as possible in FoFJK.
 G2DrvN: MDV=    3355437941.
 G2DrvN: will do    48 centers at a time, making    1 passes.
 Calling FoFCou, ICntrl=  3507 FMM=F I1Cent=   0 AccDes= 0.00D+00.
 FoFJK:  IHMeth= 1 ICntrl=    3507 DoSepK=F KAlg= 0 I1Cent=           0 FoldK=F
 IRaf=         0 NMat=       1 IRICut=       1 DoRegI=T DoRafI=F ISym2E= 0 IDoP0=0 IntGTp=1.
 FoFCou: FMM=F IPFlag=           0 FMFlag=      100000 FMFlg1=           0
         NFxFlg=           0 DoJE=F BraDBF=F KetDBF=F FulRan=T
         wScrn=  0.000000 ICntrl=      3507 IOpCl=  0 I1Cent=           0 NGrid=           0
         NMat0=    1 NMatS0=      1 NMatT0=    0 NMatD0=    1 NMtDS0=    0 NMtDT0=    0
 Symmetry not used in FoFCou.
 Defaulting to unpruned grid for atomic number  48.
 Defaulting to unpruned grid for atomic number  48.
 Defaulting to unpruned grid for atomic number  48.
 Defaulting to unpruned grid for atomic number  48.
 Defaulting to unpruned grid for atomic number  48.
 Defaulting to unpruned grid for atomic number  48.
 Defaulting to unpruned grid for atomic number  48.
 Defaulting to unpruned grid for atomic number  48.
 Defaulting to unpruned grid for atomic number  48.
 Defaulting to unpruned grid for atomic number  48.
 Defaulting to unpruned grid for atomic number  48.
 Defaulting to unpruned grid for atomic number  48.
 Defaulting to unpruned grid for atomic number  48.
 Defaulting to unpruned grid for atomic number  48.
 Defaulting to unpruned grid for atomic number  48.
 Defaulting to unpruned grid for atomic number  48.
 Defaulting to unpruned grid for atomic number  48.
 Defaulting to unpruned grid for atomic number  48.
 Defaulting to unpruned grid for atomic number  48.
 Defaulting to unpruned grid for atomic number  48.
 End of G2Drv F.D. properties file   721 does not exist.
 End of G2Drv F.D. properties file   722 does not exist.
 End of G2Drv F.D. properties file   788 does not exist.
 Leave Link 1110 at Tue Jul  6 00:51:14 2021, MaxMem=  3355443200 cpu:            3637.0 elap:             183.1
 (Enter /cluster/software/Gaussian/g16_C.01/l1002.exe)
 Minotr:  Closed shell wavefunction.
          IDoAtm=11111111111111111111111111111111111111111111111
          Direct CPHF calculation.
          Differentiating once with respect to electric field.
                with respect to dipole field.
          Differentiating once with respect to nuclear coordinates.
          Requested convergence is 1.0D-08 RMS, and 1.0D-07 maximum.
          Secondary convergence is 1.0D-12 RMS, and 1.0D-12 maximum.
          NewPWx=T KeepS1=F KeepF1=F KeepIn=T MapXYZ=F SortEE=F KeepMc=T.
 Defaulting to unpruned grid for atomic number  48.
        14280 words used for storage of precomputed grid.
 Two-electron integrals replicated using symmetry.
          MDV=    3355443200 using IRadAn=       1.
          Solving linear equations simultaneously, MaxMat=     380.
 FoF2E skips out because all densities are zero.
 CalDSu exits because no D1Ps are significant.
 FoFJK:  IHMeth= 1 ICntrl=     500 DoSepK=F KAlg= 0 I1Cent=           0 FoldK=F
 IRaf= 790000000 NMat=     141 IRICut=       1 DoRegI=T DoRafI=F ISym2E= 2 IDoP0=3 IntGTp=3.
 FoFCou: FMM=F IPFlag=           0 FMFlag=      100000 FMFlg1=           0
         NFxFlg=           0 DoJE=F BraDBF=F KetDBF=F FulRan=T
         wScrn=  0.000000 ICntrl=       500 IOpCl=  0 I1Cent=           0 NGrid=           0
         NMat0=  141 NMatS0=    141 NMatT0=    0 NMatD0=  141 NMtDS0=    0 NMtDT0=    0
 Integrals replicated using symmetry in FoFCou.
 Defaulting to unpruned grid for atomic number  48.
 Defaulting to unpruned grid for atomic number  48.
 Defaulting to unpruned grid for atomic number  48.
 Defaulting to unpruned grid for atomic number  48.
 Defaulting to unpruned grid for atomic number  48.
 Defaulting to unpruned grid for atomic number  48.
 Defaulting to unpruned grid for atomic number  48.
 Defaulting to unpruned grid for atomic number  48.
 Defaulting to unpruned grid for atomic number  48.
 Defaulting to unpruned grid for atomic number  48.
 Defaulting to unpruned grid for atomic number  48.
 Defaulting to unpruned grid for atomic number  48.
 Defaulting to unpruned grid for atomic number  48.
 Defaulting to unpruned grid for atomic number  48.
 Defaulting to unpruned grid for atomic number  48.
 Defaulting to unpruned grid for atomic number  48.
 Defaulting to unpruned grid for atomic number  48.
 Defaulting to unpruned grid for atomic number  48.
 Defaulting to unpruned grid for atomic number  48.
 Defaulting to unpruned grid for atomic number  48.
          There are   144 degrees of freedom in the 1st order CPHF.  IDoFFX=6 NUNeed=     3.
    141 vectors produced by pass  0 Test12= 5.37D-14 1.00D-09 XBig12= 1.26D+03 1.62D+01.
 AX will form   141 AO Fock derivatives at one time.
    141 vectors produced by pass  1 Test12= 5.37D-14 1.00D-09 XBig12= 4.33D+02 3.70D+00.
    141 vectors produced by pass  2 Test12= 5.37D-14 1.00D-09 XBig12= 3.07D+00 2.16D-01.
    141 vectors produced by pass  3 Test12= 5.37D-14 1.00D-09 XBig12= 1.61D-02 7.80D-03.
    141 vectors produced by pass  4 Test12= 5.37D-14 1.00D-09 XBig12= 1.52D-05 2.56D-04.
     73 vectors produced by pass  5 Test12= 5.37D-14 1.00D-09 XBig12= 3.01D-09 2.60D-06.
      3 vectors produced by pass  6 Test12= 5.37D-14 1.00D-09 XBig12= 8.02D-13 6.73D-08.
      2 vectors produced by pass  7 Test12= 5.37D-14 1.00D-09 XBig12= 2.38D-16 1.50D-09.
 InvSVY:  IOpt=1 It=  1 EMax= 2.13D-14
 Solved reduced A of dimension   783 with   144 vectors.
 FullF1:  Do perturbations      1 to       3.
 Isotropic polarizability for W=    0.000000      334.01 Bohr**3.
 End of Minotr F.D. properties file   721 does not exist.
 End of Minotr F.D. properties file   722 does not exist.
 End of Minotr F.D. properties file   788 does not exist.
 Leave Link 1002 at Tue Jul  6 01:04:43 2021, MaxMem=  3355443200 cpu:           15969.0 elap:             803.6
 (Enter /cluster/software/Gaussian/g16_C.01/l601.exe)
 Copying SCF densities to generalized density rwf, IOpCl= 0 IROHF=0.

 **********************************************************************

            Population analysis using the SCF Density.

 **********************************************************************

 Orbital symmetries:
       Occupied  (A) (A) (A) (A) (A) (A) (A) (A) (A) (A) (A) (A)
                 (A) (A) (A) (A) (A) (A) (A) (A) (A) (A) (A) (A)
                 (A) (A) (A) (A) (A) (A) (A) (A) (A) (A) (A) (A)
                 (A) (A) (A) (A) (A) (A) (A) (A) (A) (A) (A) (A)
                 (A) (A) (A) (A) (A) (A) (A) (A) (A) (A) (A) (A)
                 (A) (A) (A) (A) (A) (A) (A) (A) (A) (A) (A) (A)
                 (A) (A) (A) (A) (A) (A) (A) (A) (A) (A) (A) (A)
                 (A) (A) (A) (A) (A) (A) (A) (A) (A) (A) (A) (A)
                 (A) (A) (A) (A) (A) (A) (A) (A) (A) (A) (A) (A)
                 (A) (A) (A) (A) (A) (A) (A) (A) (A) (A) (A) (A)
                 (A) (A) (A) (A) (A) (A) (A) (A) (A) (A)
       Virtual   (A) (A) (A) (A) (A) (A) (A) (A) (A) (A) (A) (A)
                 (A) (A) (A) (A) (A) (A) (A) (A) (A) (A) (A) (A)
                 (A) (A) (A) (A) (A) (A) (A) (A) (A) (A) (A) (A)
                 (A) (A) (A) (A) (A) (A) (A) (A) (A) (A) (A) (A)
                 (A) (A) (A) (A) (A) (A) (A) (A) (A) (A) (A) (A)
                 (A) (A) (A) (A) (A) (A) (A) (A) (A) (A) (A) (A)
                 (A) (A) (A) (A) (A) (A) (A) (A) (A) (A) (A) (A)
                 (A) (A) (A) (A) (A) (A) (A) (A) (A) (A) (A) (A)
                 (A) (A) (A) (A) (A) (A) (A) (A) (A) (A) (A) (A)
                 (A) (A) (A) (A) (A) (A) (A) (A) (A) (A) (A) (A)
                 (A) (A) (A) (A) (A) (A) (A) (A) (A) (A) (A) (A)
                 (A) (A) (A) (A) (A) (A) (A) (A) (A) (A) (A) (A)
                 (A) (A) (A) (A) (A) (A) (A) (A) (A) (A) (A) (A)
                 (A) (A) (A) (A) (A) (A) (A) (A) (A) (A) (A) (A)
                 (A) (A) (A) (A) (A) (A) (A) (A) (A) (A) (A) (A)
[...]

 107. BD ( 1) C 17- C 18     -0.13 -0.05  0.03  0.14    -0.14 -0.06  0.03  0.15
                                             deloc 163: -0.04 -0.04 -0.01  0.06
                                             deloc 168: -0.06 -0.01 -0.00  0.06
                                             deloc 167:  0.05  0.01  0.00  0.05
                                             deloc 172:  0.04 -0.02 -0.01  0.04
                                             deloc 164:  0.01  0.04  0.01  0.04
                                             deloc 169:  0.03  0.03  0.01  0.04
                                             deloc 585: -0.01 -0.02 -0.00  0.02

 108. BD ( 2) C 17- C 18      2.70  2.50  0.56  3.72    -0.36  0.16  0.04  0.39
                                             deloc 161:  1.18  2.04  0.48  2.40
                                             deloc 171:  1.71 -0.03 -0.04  1.71
                                             deloc 166: -0.08  0.15  0.04  0.17
                                             deloc 157:  0.14  0.01 -0.00  0.14
                                             deloc 174: -0.01  0.09  0.02  0.09
                                             deloc 152:  0.04  0.00 -0.00  0.04
                                             deloc 113: -0.01 -0.04 -0.01  0.04
                                             deloc 587:  0.02  0.03  0.01  0.04
                                             deloc 103:  0.03  0.01  0.00  0.03
                                             deloc  90:  0.03  0.01  0.00  0.03
                                             deloc  61: -0.01  0.02  0.00  0.02

 109. BD ( 1) C 17- H 35     -1.54  0.15  0.05  1.55    -1.60  0.09  0.04  1.61
                                             deloc 160:  0.05  0.06  0.01  0.08
                                             deloc 168:  0.03 -0.05 -0.01  0.06
                                             deloc 165: -0.02  0.05  0.01  0.05
                                             deloc 163: -0.01 -0.03 -0.01  0.04
                                             deloc 169:  0.02 -0.02 -0.01  0.03
                                             deloc 177: -0.01  0.02  0.00  0.02

 110. BD ( 1) C 18- C 19      0.02 -0.12  0.01  0.13     0.02 -0.14  0.01  0.14
                                             deloc 170: -0.02 -0.06 -0.01  0.06
                                             deloc 165:  0.02 -0.05 -0.01  0.06
                                             deloc 172: -0.01  0.05  0.01  0.05
                                             deloc 159:  0.04  0.03  0.01  0.05
                                             deloc 167: -0.04  0.03  0.01  0.05
                                             deloc 169:  0.01  0.04  0.01  0.04

 111. BD ( 1) C 18- H 37     -0.77 -1.27 -0.28  1.51    -0.81 -1.34 -0.30  1.59
                                             deloc 163: -0.03  0.05  0.01  0.06
                                             deloc 170:  0.06 -0.00 -0.00  0.06
                                             deloc 165:  0.03 -0.03 -0.01  0.04
                                             deloc 168: -0.04  0.01  0.00  0.04
                                             deloc 167: -0.01  0.03  0.01  0.03
                                             deloc 172:  0.03  0.01  0.00  0.03
                                             deloc 611:  0.01 -0.02 -0.00  0.02
                                             deloc 663: -0.02 -0.00  0.00  0.02

 112. BD ( 1) C 19- C 20      0.21 -0.04  0.03  0.21     0.16 -0.03  0.03  0.16
                                             deloc 162:  0.05 -0.05 -0.01  0.07
                                             deloc 168:  0.06 -0.01 -0.00  0.06
                                             deloc 169: -0.04 -0.02 -0.00  0.04
                                             deloc 159: -0.04  0.00  0.00  0.04
                                             deloc 172: -0.03  0.03  0.01  0.04
                                             deloc 149:  0.03  0.01  0.00  0.03

 113. BD ( 2) C 19- C 20     -2.45  1.01  0.30  2.67    -0.03 -0.39 -0.07  0.39
                                             deloc 166: -1.74 -0.18 -0.01  1.75
                                             deloc 161: -0.87  1.37  0.35  1.66
                                             deloc 157:  0.27  0.05 -0.00  0.28
                                             deloc 174: -0.12  0.20  0.05  0.23
                                             deloc 108: -0.12 -0.16 -0.04  0.20
                                             deloc 152:  0.14  0.02 -0.00  0.14
                                             deloc 171: -0.06 -0.12 -0.03  0.14
                                             deloc  61: -0.05  0.05  0.01  0.07
                                             deloc  90:  0.05  0.04  0.01  0.06
                                             deloc 148:  0.05  0.03  0.00  0.06
                                             deloc 121: -0.02  0.03  0.01  0.04
                                             deloc 103:  0.02  0.00  0.00  0.02

 114. BD ( 1) C 19- H 41      0.86 -1.28 -0.33  1.58     0.85 -1.35 -0.36  1.64
                                             deloc 162:  0.03  0.07  0.02  0.08
                                             deloc 165: -0.06  0.00  0.00  0.06
                                             deloc 168:  0.05  0.01  0.00  0.05
                                             deloc 170: -0.03 -0.03 -0.01  0.04
                                             deloc 169: -0.03  0.01  0.00  0.03
                                             deloc 159:  0.00  0.02  0.01  0.02

 115. BD ( 1) N 21- C 22      0.36  0.38  0.14  0.54     0.43  0.36  0.14  0.58
                                             deloc 164: -0.03  0.04  0.01  0.05
                                             deloc 181: -0.01  0.04  0.01  0.04
                                             deloc 175:  0.02 -0.03 -0.00  0.03
                                             deloc 822:  0.00 -0.03 -0.00  0.03
                                             deloc 176: -0.03  0.01 -0.00  0.03

 116. BD ( 2) N 21- C 22      0.05  0.85  0.27  0.90     0.63  0.90  0.33  1.15
                                             deloc 179: -0.45  0.60  0.10  0.75
                                             deloc 161:  0.08 -0.29 -0.07  0.31
                                             deloc 174: -0.07 -0.10 -0.03  0.12
                                             deloc 108: -0.01 -0.11 -0.03  0.12
                                             deloc  61: -0.09 -0.01 -0.01  0.09
                                             deloc 171:  0.02 -0.06 -0.01  0.07
                                             deloc 113:  0.02 -0.05 -0.01  0.05
                                             deloc 769: -0.03  0.00 -0.00  0.03
                                             deloc 796: -0.02  0.02  0.00  0.03
                                             deloc 823:  0.02 -0.02 -0.01  0.03
                                             deloc 767: -0.03 -0.01 -0.00  0.03
                                             deloc 131:  0.01  0.01 -0.02  0.03

 117. BD ( 1) N 21- C 25      0.55 -0.61 -0.07  0.82     0.59 -0.57 -0.06  0.83
                                             deloc 164: -0.01 -0.06 -0.01  0.06
                                             deloc 176: -0.02 -0.05 -0.01  0.05
                                             deloc 180: -0.04  0.01 -0.00  0.04
                                             deloc 173:  0.02  0.02  0.01  0.03
                                             deloc 181: -0.02 -0.02 -0.01  0.03

 118. BD ( 1) C 22- S 23      0.25 -0.38 -0.03  0.46     0.19 -0.46 -0.06  0.50
                                             deloc 180: -0.01  0.05  0.01  0.05
                                             deloc 177:  0.01  0.05  0.01  0.05
                                             deloc 160:  0.03 -0.03 -0.01  0.04
                                             deloc 164:  0.01 -0.04 -0.01  0.04
                                             deloc 178: -0.01  0.04  0.01  0.04
                                             deloc 173:  0.01  0.02  0.01  0.03

 119. BD ( 1) S 23- C 24     -0.21  0.15  0.06  0.26    -0.42  0.18  0.05  0.46
                                             deloc 181:  0.05  0.02  0.01  0.06
                                             deloc 164:  0.05 -0.02 -0.00  0.06
                                             deloc 176:  0.05 -0.00  0.00  0.05
                                             deloc 173:  0.04 -0.03 -0.00  0.05
                                             deloc 178:  0.04 -0.00  0.00  0.04
                                             deloc 175:  0.03  0.02  0.01  0.03
                                             deloc 180: -0.03  0.01  0.00  0.03
                                             deloc 821: -0.02 -0.02 -0.00  0.03

 120. BD ( 1) C 24- C 25     -0.14  0.08  0.05  0.17    -0.17  0.24  0.08  0.31
                                             deloc 180:  0.04 -0.06 -0.01  0.07
                                             deloc 181: -0.02 -0.05 -0.01  0.05
                                             deloc 177: -0.01 -0.05 -0.01  0.05
                                             deloc 176: -0.01 -0.04 -0.01  0.04
                                             deloc 175: -0.01  0.03  0.00  0.03

 121. BD ( 2) C 24- C 25     -0.04 -2.02 -0.33  2.04    -0.96 -0.20  0.00  0.98
                                             deloc 174:  0.67 -1.02 -0.17  1.23
                                             deloc 161:  0.16 -0.31 -0.06  0.36
                                             deloc  61: -0.12 -0.22 -0.06  0.25
                                             deloc 767: -0.04 -0.11 -0.03  0.12
                                             deloc 108:  0.02 -0.11 -0.02  0.12
                                             deloc 183:  0.04  0.06  0.03  0.08
                                             deloc 184:  0.04  0.06 -0.00  0.07
                                             deloc 113:  0.03 -0.06 -0.01  0.07
                                             deloc 171:  0.02 -0.05 -0.01  0.06
                                             deloc 179:  0.05  0.01  0.01  0.05
                                             deloc 116:  0.02  0.02  0.01  0.02

 122. BD ( 1) C 24- H 36     -1.16  0.85  0.12  1.44    -1.12  1.01  0.15  1.51
                                             deloc 178: -0.09 -0.04 -0.01  0.09
                                             deloc 175:  0.06 -0.00  0.00  0.06
                                             deloc 176:  0.00 -0.05 -0.01  0.05
                                             deloc 177: -0.01 -0.04 -0.01  0.04
                                             deloc 821: -0.02 -0.00 -0.00  0.02

 123. BD ( 1) C 25- C 26     -0.16 -0.25  0.04  0.30    -0.13 -0.15  0.04  0.21
                                             deloc 177: -0.08 -0.05 -0.02  0.09
                                             deloc 178:  0.06 -0.01  0.00  0.06
                                             deloc 173:  0.01 -0.04 -0.01  0.04
                                             deloc 175: -0.02  0.02  0.00  0.03

 124. BD ( 1) C 26- H 39     -1.15  1.03  0.37  1.58    -1.09  1.16  0.40  1.64
                                             deloc 175: -0.04 -0.09 -0.02  0.10
                                             deloc 178:  0.00 -0.03 -0.01  0.03
                                             deloc 183: -0.01 -0.01  0.02  0.03
                                             deloc 184: -0.01 -0.00 -0.02  0.02

 125. BD ( 1) C 26- H 40      0.59  0.25 -1.14  1.31     0.75  0.52 -1.14  1.46
                                             deloc 179: -0.14 -0.18  0.02  0.24
                                             deloc 823:  0.01  0.03  0.00  0.03
                                             deloc 174: -0.01 -0.03 -0.00  0.03
                                             deloc 182:  0.01 -0.02  0.00  0.03
                                             deloc 181:  0.01  0.02  0.01  0.02
                                             deloc 184: -0.02  0.00 -0.01  0.02

 126. BD ( 1) C 26- H 44      0.96 -0.32  1.22  1.59     1.06 -0.12  1.30  1.68
                                             deloc 179: -0.09 -0.10 -0.07  0.15
                                             deloc 178: -0.01 -0.03  0.01  0.03
                                             deloc 125:  0.02  0.00 -0.00  0.02
                                             deloc 183: -0.02 -0.01  0.01  0.02
                                             deloc 177: -0.02 -0.01 -0.01  0.02

 127. BD ( 1)Cl 27- O 28      0.32  0.36  0.69  0.84     0.36  0.42  0.77  0.95
                                             deloc 186:  0.04 -0.15  0.03  0.16
                                             deloc 187: -0.14  0.03  0.02  0.14
                                             deloc 188:  0.07  0.06 -0.10  0.14

 128. BD ( 1)Cl 27- O 29      0.12 -0.75  0.03  0.76     0.14 -0.88  0.04  0.89
                                             deloc 185:  0.07  0.05  0.13  0.16
                                             deloc 187: -0.14  0.00 -0.00  0.14
                                             deloc 188:  0.07  0.03 -0.12  0.14

 129. BD ( 1)Cl 27- O 30     -0.64  0.11 -0.01  0.65    -0.77  0.13 -0.01  0.78
                                             deloc 185:  0.05  0.07  0.13  0.15
                                             deloc 186:  0.01 -0.15  0.01  0.15
                                             deloc 188:  0.04  0.06 -0.12  0.14

 130. BD ( 1)Cl 27- O 31      0.27  0.23 -0.51  0.62     0.33  0.28 -0.62  0.76
                                             deloc 185:  0.07  0.07  0.11  0.15
                                             deloc 186:  0.03 -0.14 -0.01  0.14
                                             deloc 187: -0.14  0.03 -0.02  0.14

   Residual nuclear charge   -4.29  4.85-12.27 13.87    -4.29  4.85-12.27 13.87
                            ----------------------------------------------------
         Net dipole moment   -3.02  7.22 -8.92 11.87    -3.86  6.62-12.39 14.57
 Delocalization correction                               0.84  0.60  3.47  3.62
                            ----------------------------------------------------
       Total dipole moment   -3.02  7.22 -8.92 11.87    -3.02  7.22 -8.92 11.87


 Dipole moment analysis by molecular fragment:

                               NLMO fragment dipole        NBO fragment dipole
                             -------------------------  ------------------------
       Molecular fragment      x     y     z   Total      x     y     z   Total
 ===============================================================================
   1. Cd                      0.03  0.01  0.08  0.09     0.02  0.06  0.06  0.09
                                                 deloc:  0.01 -0.05  0.02  0.06

   2. H2O                     0.07  0.78 -2.64  2.75     0.06  1.02 -2.53  2.72
                                                 deloc:  0.01 -0.24 -0.11  0.27

   3. C18H14N4S2              0.19  2.92  2.80  4.05     0.12  1.07  1.54  1.88
                                                 deloc:  0.07  1.85  1.25  2.24

   4. O4Cl                    0.98 -1.33  3.11  3.52     0.22 -0.38  0.80  0.91
                                                 deloc:  0.75 -0.95  2.31  2.61

   Residual nuclear charge   -4.29  4.85-12.27 13.87    -4.29  4.85-12.27 13.87
                            ----------------------------------------------------
       Total dipole moment   -3.02  7.22 -8.92 11.87    -3.02  7.22 -8.92 11.87

 Maximum scratch memory used by NBO was 11752822 words (89.67 MB)
 Maximum scratch memory used by G16NBO was 1779085 words (13.57 MB)

 Opening RunExU unformatted file "/cluster/work/users/davidbal/huge_pack_292/Gau-79448.EUF"
 Read unf file /cluster/work/users/davidbal/huge_pack_292/Gau-79448.EUF:
 Label Gaussian matrix elements                                         IVers= 2 NLab= 2 Version=ES64L-G16RevC.01
 Title tmQMg project                                                   
 NAtoms=    47 NBasis=  1084 NBsUse=  1084 ICharg=     1 Multip=     1 NE=   260 Len12L=8 Len4L=8 IOpCl= 0 ICGU=111
 GAUSSIAN SCALARS                    NI= 1 NR= 1 NTot=       1 LenBuf=    2 NRI=1 N=    1000
 NPA CHARGES                         NI= 0 NR= 1 NTot=      47 LenBuf= 2048 NRI=1 N=      47
 Recovered energy= -2713.37704931     dipole=     -1.187714341545      2.841625182163     -3.508220643362
 Leave Link  612 at Tue Jul  6 01:24:26 2021, MaxMem=  3355443200 cpu:            6249.3 elap:             330.0
 (Enter /cluster/software/Gaussian/g16_C.01/l9999.exe)
 Unable to Open any file for archive entry.
 1\1\GINC-C3-12\SP\RPBE1PBE\def2TZVP\C18H16Cd1Cl1N4O5S2(1+)\DAVIDBAL\06
 -Jul-2021\0\\#p pbe1pbe/def2TZVP empiricaldispersion=gd3bj geom=check 
 guess=read scf(conver=5) pop=nbo7read\\tmQMg project\\1,1\Cd,0,9.28154
 16436,8.6507276511,8.7433536331\O,0,8.015224728,9.3870332626,10.690460
 0304\N,0,7.0572860754,8.3424695822,7.8871441863\C,0,6.7405407947,7.084
 6299985,7.605409821\S,0,5.2092133559,6.9266432809,6.7987207069\C,0,5.0
 147691727,8.6389078951,6.8658536683\C,0,6.1018843044,9.24655388,7.4804
 957727\C,0,6.2900975512,10.7113841076,7.705273049\N,0,8.7848857498,6.3
 054148434,8.5252477965\C,0,7.6204460307,5.9575719875,7.9473584005\C,0,
 7.3015968844,4.6059668567,7.702080529\C,0,8.2299595974,3.6290533141,8.
 0789724546\C,0,9.4395352318,4.0094460269,8.6786039961\C,0,9.6912393886
 ,5.3804990091,8.8863083324\N,0,10.9984827216,7.2390980307,9.6731739\C,
 0,12.1041330527,7.8422538396,10.1460281063\C,0,13.2495175822,7.0948288
 249,10.4944417772\C,0,13.2133281695,5.7072110036,10.3250176919\C,0,12.
 0588175537,5.0971243705,9.8115254045\C,0,10.9549461893,5.9090587465,9.
 4857540076\N,0,10.9186531836,9.9825102917,9.9552188052\C,0,12.02331973
 55,9.3054731068,10.2465465237\S,0,13.3520356644,10.3242761572,10.70983
 34618\C,0,12.3472412214,11.7070027511,10.4982706289\C,0,11.0735963745,
 11.3444878505,10.0809458042\C,0,9.9530848913,12.2765852347,9.754154956
 5\Cl,0,10.6455860489,10.0150323473,6.449824936\O,0,9.3437404571,10.448
 3040345,7.218423876\O,0,10.8613654512,8.5520004905,6.8946911781\O,0,11
 .7768053373,10.8556676472,6.9104935337\O,0,10.4039082225,10.0940278119
 ,5.000880415\H,0,8.5688478689,9.5113739696,11.4852414612\H,0,7.1699000
 41,11.0671661196,7.130624324\H,0,7.2094926293,8.9303732879,10.99871801
 81\H,0,14.14931208,7.5928467637,10.8841156532\H,0,12.7395765147,12.716
 3007552,10.669977574\H,0,14.0906700583,5.096720344,10.5833109181\H,0,1
 0.1697601095,3.2459780439,8.9762420744\H,0,10.201336923,13.3164776179,
 10.0312440092\H,0,9.7477093055,12.2233969591,8.6656719243\H,0,12.03381
 92185,4.0109587374,9.6555375558\H,0,8.0126566121,2.5653644258,7.904084
 755\H,0,6.3492564892,4.3281190407,7.2272789556\H,0,9.0254822558,11.973
 3217089,10.2797452784\H,0,4.1211742957,9.1173538933,6.4474391015\H,0,6
 .4966721544,10.9120085175,8.776103064\H,0,5.3957510789,11.2824955807,7
 .3989579498\\Version=ES64L-G16RevC.01\State=1-A\HF=-2713.3770493\RMSD=
 5.314e-06\Dipole=-1.5192777,-2.6818373,3.5060883\Quadrupole=14.8555875
 ,13.5925969,-28.4481844,-0.7957572,22.9105029,10.472036\PG=C01 [X(C18H
 16Cd1Cl1N4O5S2)]\\@
 The archive entry for this job was punched.


 I think that all right-thinking people in this
 country are sick and tired of being told that
 ordinary, decent people are fed up in this country
 with being sick and tired.  I'm certainly not!
 But I'm sick and tired of being told that I am!
                               -- Monty Python
 Job cpu time:       0 days  4 hours 23 minutes 53.4 seconds.
 Elapsed time:       0 days  0 hours 13 minutes 32.6 seconds.
 File lengths (MBytes):  RWF=    615 Int=      0 D2E=      0 Chk=     76 Scr=      1
 Normal termination of Gaussian 16 at Tue Jul  6 01:24:29 2021.
