 Initial command:
 /cluster/software/Gaussian/g16_C.01/l1.exe "/cluster/work/users/davidbal/huge_pack_28/Gau-16666.inp" -scrdir="/cluster/work/users/davidbal/huge_pack_28/"
 Entering Link 1 = /cluster/software/Gaussian/g16_C.01/l1.exe PID=     56434.
  
 Copyright (c) 1988-2019, Gaussian, Inc.  All Rights Reserved.
  
 This is part of the Gaussian(R) 16 program.  It is based on
 the Gaussian(R) 09 system (copyright 2009, Gaussian, Inc.),
 the Gaussian(R) 03 system (copyright 2003, Gaussian, Inc.),
 the Gaussian(R) 98 system (copyright 1998, Gaussian, Inc.),
 the Gaussian(R) 94 system (copyright 1995, Gaussian, Inc.),
 the Gaussian 92(TM) system (copyright 1992, Gaussian, Inc.),
 the Gaussian 90(TM) system (copyright 1990, Gaussian, Inc.),
 the Gaussian 88(TM) system (copyright 1988, Gaussian, Inc.),
 the Gaussian 86(TM) system (copyright 1986, Carnegie Mellon
 University), and the Gaussian 82(TM) system (copyright 1983,
 Carnegie Mellon University). Gaussian is a federally registered
 trademark of Gaussian, Inc.
  
 This software contains proprietary and confidential information,
 including trade secrets, belonging to Gaussian, Inc.
  
 This software is provided under written license and may be
 used, copied, transmitted, or stored only in accord with that
 written license.
  
 The following legend is applicable only to US Government
 contracts under FAR:
  
                    RESTRICTED RIGHTS LEGEND
  
 Use, reproduction and disclosure by the US Government is
 subject to restrictions as set forth in subparagraphs (a)
 and (c) of the Commercial Computer Software - Restricted
 Rights clause in FAR 52.227-19.
  
 Gaussian, Inc.
 340 Quinnipiac St., Bldg. 40, Wallingford CT 06492
  
  
 ---------------------------------------------------------------
 Warning -- This program may not be used in any manner that
 competes with the business of Gaussian, Inc. or will provide
 assistance to any competitor of Gaussian, Inc.  The licensee
 of this program is prohibited from giving any competitor of
 Gaussian, Inc. access to this program.  By using this program,
 the user acknowledges that Gaussian, Inc. is engaged in the
 business of creating and licensing software in the field of
 computational chemistry and represents and warrants to the
 licensee that it is not a competitor of Gaussian, Inc. and that
 it will not use this program in any manner prohibited above.
 ---------------------------------------------------------------
  

 Cite this work as:
 Gaussian 16, Revision C.01,
 M. J. Frisch, G. W. Trucks, H. B. Schlegel, G. E. Scuseria, 
 M. A. Robb, J. R. Cheeseman, G. Scalmani, V. Barone, 
 G. A. Petersson, H. Nakatsuji, X. Li, M. Caricato, A. V. Marenich, 
 J. Bloino, B. G. Janesko, R. Gomperts, B. Mennucci, H. P. Hratchian, 
 J. V. Ortiz, A. F. Izmaylov, J. L. Sonnenberg, D. Williams-Young, 
 F. Ding, F. Lipparini, F. Egidi, J. Goings, B. Peng, A. Petrone, 
 T. Henderson, D. Ranasinghe, V. G. Zakrzewski, J. Gao, N. Rega, 
 G. Zheng, W. Liang, M. Hada, M. Ehara, K. Toyota, R. Fukuda, 
 J. Hasegawa, M. Ishida, T. Nakajima, Y. Honda, O. Kitao, H. Nakai, 
 T. Vreven, K. Throssell, J. A. Montgomery, Jr., J. E. Peralta, 
 F. Ogliaro, M. J. Bearpark, J. J. Heyd, E. N. Brothers, K. N. Kudin, 
 V. N. Staroverov, T. A. Keith, R. Kobayashi, J. Normand, 
 K. Raghavachari, A. P. Rendell, J. C. Burant, S. S. Iyengar, 
 J. Tomasi, M. Cossi, J. M. Millam, M. Klene, C. Adamo, R. Cammi, 
 J. W. Ochterski, R. L. Martin, K. Morokuma, O. Farkas, 
 J. B. Foresman, and D. J. Fox, Gaussian, Inc., Wallingford CT, 2019.
 
 ******************************************
 Gaussian 16:  ES64L-G16RevC.01  3-Jul-2019
                 6-Jul-2021 
 ******************************************
 %NProcShared=20
 Will use up to   20 processors via shared memory.
 %LindaWorkers=c10-44-ib
 %mem=25GB
 %chk=OREDIA.chk
 SetLPE:    new flags="-opt 'Tsnet.Node.lindarsharg: ssh'  -nodelist 'c10-44-ib' -env GAUSS_MDEF=3355443200 -env GAUSS_EXEDIR="/cluster/software/Gaussian/g16_C.01/bsd:/cluster/software/Gaussian/g16_C.01""
 Will use up to    1 processors via Linda.
 ----------------------------------------------------------------------
 #p pbepbe/def2SVP empiricaldispersion=gd3bj geom=check guess=read freq
 ----------------------------------------------------------------------
 1/10=4,29=2,30=1,38=1/1,3;
 2/12=2,40=1/2;
 3/5=43,7=101,11=2,14=-4,25=1,30=1,71=2,74=1009,116=-2,124=41,140=1/1,2,3;
 4/5=1/1;
 5/5=2,38=6,98=1/2;
 8/6=4,10=90,11=11/1;
 11/6=1,8=1,9=11,15=111,16=1/1,2,10;
 10/6=1/2;
 6/7=2,8=2,9=2,10=2,28=1/1;
 7/8=1,10=1,25=1/1,2,3,16;
 1/10=4,30=1/3;
 99//99;
 Leave Link    1 at Tue Jul  6 05:16:08 2021, MaxMem=  3355443200 cpu:              22.4 elap:               1.2
 (Enter /cluster/software/Gaussian/g16_C.01/l101.exe)
 -------------
 tmQMg project
 -------------
 Structure from the checkpoint file:  "OREDIA.chk"
 Charge =  0 Multiplicity = 1
 Redundant internal coordinates found in file.  (old form).
 Ir,0,-2.0728749656,-4.2319272598,2.3614236179
 H,0,-1.7845582288,-2.7288473901,1.9548495798
 N,0,-0.1155744091,-4.6705206215,2.4969773134
 C,0,0.2712165468,-5.8478123878,1.9766749538
 H,0,-0.5335646665,-6.4579386567,1.5521804892
 C,0,1.6211277977,-6.2964877903,2.0097082199
 N,0,2.5743920755,-5.5706359243,2.5943827858
 C,0,2.2161635422,-4.3757729703,3.1345399252
 C,0,3.2188041004,-3.5805095945,3.7632549331
 H,0,4.2401581733,-3.9868037468,3.7793855787
 C,0,2.9003893436,-2.3503278391,4.317024205
 H,0,3.6822037269,-1.7431081045,4.7978302047
 C,0,1.5677099232,-1.8661795482,4.2590854911
 H,0,1.3243234181,-0.8848300376,4.6931593581
 C,0,0.5616424403,-2.6121965035,3.6558580852
 H,0,-0.4721216229,-2.2491489033,3.6126628141
 C,0,0.8630339905,-3.8772827988,3.0913332785
 C,0,1.9999186592,-7.6022034949,1.4091284278
 C,0,3.2994747453,-8.1090417446,1.6348576699
 H,0,3.9847639019,-7.5073471552,2.2485142605
 C,0,3.6916628439,-9.336708045,1.0904117942
 H,0,4.7067331059,-9.7184457442,1.2790496138
 C,0,2.7947383058,-10.0818261073,0.3060195568
 H,0,3.102966628,-11.0476234913,-0.1225032289
 C,0,1.5034874306,-9.5850312484,0.0684285217
 H,0,0.7971912011,-10.1574496251,-0.5517702103
 C,0,1.1074149659,-8.3564191413,0.6139846454
 H,0,0.0969711611,-7.9799616301,0.399184169
 O,0,-1.9521543907,-4.8069448773,0.4222867554
 C,0,-2.9788865644,-4.9052446127,-0.3508433467
 C,0,-4.3113644986,-4.5881871794,-0.0097997671
 H,0,-5.0623135239,-4.7283145357,-0.7987311876
 C,0,-4.7873162241,-4.1128716206,1.2344118929
 O,0,-4.0757025327,-3.878032594,2.2792127248
 C,0,-2.651057796,-5.4029008601,-1.7386484706
 H,0,-3.5534634033,-5.5484881795,-2.3592701937
 H,0,-2.0957411184,-6.3604244233,-1.6693007776
 H,0,-1.9778481723,-4.6795043968,-2.2433180394
 C,0,-6.2604592284,-3.8329115257,1.4167213705
 H,0,-6.6462872002,-4.4318533395,2.2666984004
 H,0,-6.8517480564,-4.0598693754,0.5114059853
 H,0,-6.402837708,-2.7669517529,1.6883369135
 O,0,-2.1843359302,-3.6761857027,4.3146710813
 C,0,-2.4166042313,-4.4961075257,5.2849054242
 C,0,-2.6347811964,-5.8878256122,5.2040075316
 H,0,-2.8040794345,-6.3958201918,6.1631154449
 C,0,-2.6759177517,-6.7117617382,4.047049478
 O,0,-2.5150976193,-6.3216180335,2.8419905847
 C,0,-2.4343378629,-3.8188675171,6.6366206206
 H,0,-2.6454969483,-4.5217820564,7.4624685562
 H,0,-3.1975568702,-3.0143016545,6.6352264309
 H,0,-1.4546727544,-3.3293830649,6.8149665712
 C,0,-2.9251564711,-8.1968241438,4.2168819312
 H,0,-3.810780714,-8.4899649548,3.617084508
 H,0,-3.0811809408,-8.4948110543,5.2697879072
 H,0,-2.0624149917,-8.7595599722,3.8039256163
 Recover connectivity data from disk.
 ITRead=  0  0  0  0  0  0  0  0  0  0  0  0  0  0  0  0  0  0  0  0
 ITRead=  0  0  0  0  0  0  0  0  0  0  0  0  0  0  0  0  0  0  0  0
 ITRead=  0  0  0  0  0  0  0  0  0  0  0  0  0  0  0  0
 MicOpt= -1 -1 -1 -1 -1 -1 -1 -1 -1 -1 -1 -1 -1 -1 -1 -1 -1 -1 -1 -1
 MicOpt= -1 -1 -1 -1 -1 -1 -1 -1 -1 -1 -1 -1 -1 -1 -1 -1 -1 -1 -1 -1
 MicOpt= -1 -1 -1 -1 -1 -1 -1 -1 -1 -1 -1 -1 -1 -1 -1 -1
 NAtoms=     56 NQM=       56 NQMF=       0 NMMI=      0 NMMIF=      0
                NMic=       0 NMicF=      0.
                    Isotopes and Nuclear Properties:
 (Nuclear quadrupole moments (NQMom) in fm**2, nuclear magnetic moments (NMagM)
  in nuclear magnetons)

  Atom         1           2           3           4           5           6           7           8           9          10
 IAtWgt=         193           1          14          12           1          12          14          12          12           1
 AtmWgt= 192.9633000   1.0078250  14.0030740  12.0000000   1.0078250  12.0000000  14.0030740  12.0000000  12.0000000   1.0078250
 NucSpn=           3           1           2           0           1           0           2           0           0           1
 AtZEff=1150.3800000   1.0000000   4.5500000   3.6000000   1.0000000   3.6000000   4.5500000   3.6000000   3.6000000   1.0000000
 NQMom=   75.1000000   0.0000000   2.0440000   0.0000000   0.0000000   0.0000000   2.0440000   0.0000000   0.0000000   0.0000000
 NMagM=    0.1592000   2.7928460   0.4037610   0.0000000   2.7928460   0.0000000   0.4037610   0.0000000   0.0000000   2.7928460
 AtZNuc=  77.0000000   1.0000000   7.0000000   6.0000000   1.0000000   6.0000000   7.0000000   6.0000000   6.0000000   1.0000000

  Atom        11          12          13          14          15          16          17          18          19          20
 IAtWgt=          12           1          12           1          12           1          12          12          12           1
 AtmWgt=  12.0000000   1.0078250  12.0000000   1.0078250  12.0000000   1.0078250  12.0000000  12.0000000  12.0000000   1.0078250
 NucSpn=           0           1           0           1           0           1           0           0           0           1
 AtZEff=   3.6000000   1.0000000   3.6000000   1.0000000   3.6000000   1.0000000   3.6000000   3.6000000   3.6000000   1.0000000
 NQMom=    0.0000000   0.0000000   0.0000000   0.0000000   0.0000000   0.0000000   0.0000000   0.0000000   0.0000000   0.0000000
 NMagM=    0.0000000   2.7928460   0.0000000   2.7928460   0.0000000   2.7928460   0.0000000   0.0000000   0.0000000   2.7928460
 AtZNuc=   6.0000000   1.0000000   6.0000000   1.0000000   6.0000000   1.0000000   6.0000000   6.0000000   6.0000000   1.0000000

  Atom        21          22          23          24          25          26          27          28          29          30
 IAtWgt=          12           1          12           1          12           1          12           1          16          12
 AtmWgt=  12.0000000   1.0078250  12.0000000   1.0078250  12.0000000   1.0078250  12.0000000   1.0078250  15.9949146  12.0000000
 NucSpn=           0           1           0           1           0           1           0           1           0           0
 AtZEff=   3.6000000   1.0000000   3.6000000   1.0000000   3.6000000   1.0000000   3.6000000   1.0000000   5.6000000   3.6000000
 NQMom=    0.0000000   0.0000000   0.0000000   0.0000000   0.0000000   0.0000000   0.0000000   0.0000000   0.0000000   0.0000000
 NMagM=    0.0000000   2.7928460   0.0000000   2.7928460   0.0000000   2.7928460   0.0000000   2.7928460   0.0000000   0.0000000
 AtZNuc=   6.0000000   1.0000000   6.0000000   1.0000000   6.0000000   1.0000000   6.0000000   1.0000000   8.0000000   6.0000000

  Atom        31          32          33          34          35          36          37          38          39          40
 IAtWgt=          12           1          12          16          12           1           1           1          12           1
 AtmWgt=  12.0000000   1.0078250  12.0000000  15.9949146  12.0000000   1.0078250   1.0078250   1.0078250  12.0000000   1.0078250
 NucSpn=           0           1           0           0           0           1           1           1           0           1
 AtZEff=   3.6000000   1.0000000   3.6000000   5.6000000   3.6000000   1.0000000   1.0000000   1.0000000   3.6000000   1.0000000
 NQMom=    0.0000000   0.0000000   0.0000000   0.0000000   0.0000000   0.0000000   0.0000000   0.0000000   0.0000000   0.0000000
 NMagM=    0.0000000   2.7928460   0.0000000   0.0000000   0.0000000   2.7928460   2.7928460   2.7928460   0.0000000   2.7928460
 AtZNuc=   6.0000000   1.0000000   6.0000000   8.0000000   6.0000000   1.0000000   1.0000000   1.0000000   6.0000000   1.0000000

  Atom        41          42          43          44          45          46          47          48          49          50
 IAtWgt=           1           1          16          12          12           1          12          16          12           1
 AtmWgt=   1.0078250   1.0078250  15.9949146  12.0000000  12.0000000   1.0078250  12.0000000  15.9949146  12.0000000   1.0078250
 NucSpn=           1           1           0           0           0           1           0           0           0           1
 AtZEff=   1.0000000   1.0000000   5.6000000   3.6000000   3.6000000   1.0000000   3.6000000   5.6000000   3.6000000   1.0000000
 NQMom=    0.0000000   0.0000000   0.0000000   0.0000000   0.0000000   0.0000000   0.0000000   0.0000000   0.0000000   0.0000000
 NMagM=    2.7928460   2.7928460   0.0000000   0.0000000   0.0000000   2.7928460   0.0000000   0.0000000   0.0000000   2.7928460
 AtZNuc=   1.0000000   1.0000000   8.0000000   6.0000000   6.0000000   1.0000000   6.0000000   8.0000000   6.0000000   1.0000000

  Atom        51          52          53          54          55          56
 IAtWgt=           1           1          12           1           1           1
 AtmWgt=   1.0078250   1.0078250  12.0000000   1.0078250   1.0078250   1.0078250
 NucSpn=           1           1           0           1           1           1
 AtZEff=   1.0000000   1.0000000   3.6000000   1.0000000   1.0000000   1.0000000
 NQMom=    0.0000000   0.0000000   0.0000000   0.0000000   0.0000000   0.0000000
 NMagM=    2.7928460   2.7928460   0.0000000   2.7928460   2.7928460   2.7928460
 AtZNuc=   1.0000000   1.0000000   6.0000000   1.0000000   1.0000000   1.0000000
 Leave Link  101 at Tue Jul  6 05:16:19 2021, MaxMem=  3355443200 cpu:              46.4 elap:               3.1
 (Enter /cluster/software/Gaussian/g16_C.01/l103.exe)

 GradGradGradGradGradGradGradGradGradGradGradGradGradGradGradGradGradGrad
 Berny optimization.
 Initialization pass.
                           ----------------------------
                           !    Initial Parameters    !
                           ! (Angstroms and Degrees)  !
 --------------------------                            --------------------------
 ! Name  Definition              Value          Derivative Info.                !
 --------------------------------------------------------------------------------
 ! R1    R(1,2)                  1.5836         calculate D2E/DX2 analytically  !
 ! R2    R(1,3)                  2.0104         calculate D2E/DX2 analytically  !
 ! R3    R(1,29)                 2.0262         calculate D2E/DX2 analytically  !
 ! R4    R(1,34)                 2.0355         calculate D2E/DX2 analytically  !
 ! R5    R(1,43)                 2.0338         calculate D2E/DX2 analytically  !
 ! R6    R(1,48)                 2.1894         calculate D2E/DX2 analytically  !
 ! R7    R(3,4)                  1.344          calculate D2E/DX2 analytically  !
 ! R8    R(3,17)                 1.3929         calculate D2E/DX2 analytically  !
 ! R9    R(4,5)                  1.0955         calculate D2E/DX2 analytically  !
 ! R10   R(4,6)                  1.4229         calculate D2E/DX2 analytically  !
 ! R11   R(6,7)                  1.3332         calculate D2E/DX2 analytically  !
 ! R12   R(6,18)                 1.4863         calculate D2E/DX2 analytically  !
 ! R13   R(7,8)                  1.3593         calculate D2E/DX2 analytically  !
 ! R14   R(8,9)                  1.4258         calculate D2E/DX2 analytically  !
 ! R15   R(8,17)                 1.4427         calculate D2E/DX2 analytically  !
 ! R16   R(9,10)                 1.0993         calculate D2E/DX2 analytically  !
 ! R17   R(9,11)                 1.3861         calculate D2E/DX2 analytically  !
 ! R18   R(11,12)                1.1005         calculate D2E/DX2 analytically  !
 ! R19   R(11,13)                1.4191         calculate D2E/DX2 analytically  !
 ! R20   R(13,14)                1.1003         calculate D2E/DX2 analytically  !
 ! R21   R(13,15)                1.3902         calculate D2E/DX2 analytically  !
 ! R22   R(15,16)                1.0965         calculate D2E/DX2 analytically  !
 ! R23   R(15,17)                1.4177         calculate D2E/DX2 analytically  !
 ! R24   R(18,19)                1.413          calculate D2E/DX2 analytically  !
 ! R25   R(18,27)                1.4134         calculate D2E/DX2 analytically  !
 ! R26   R(19,20)                1.0992         calculate D2E/DX2 analytically  !
 ! R27   R(19,21)                1.3991         calculate D2E/DX2 analytically  !
 ! R28   R(21,22)                1.1008         calculate D2E/DX2 analytically  !
 ! R29   R(21,23)                1.4053         calculate D2E/DX2 analytically  !
 ! R30   R(23,24)                1.1006         calculate D2E/DX2 analytically  !
 ! R31   R(23,25)                1.4038         calculate D2E/DX2 analytically  !
 ! R32   R(25,26)                1.1005         calculate D2E/DX2 analytically  !
 ! R33   R(25,27)                1.4014         calculate D2E/DX2 analytically  !
 ! R34   R(27,28)                1.0995         calculate D2E/DX2 analytically  !
 ! R35   R(29,30)                1.289          calculate D2E/DX2 analytically  !
 ! R36   R(30,31)                1.4115         calculate D2E/DX2 analytically  !
 ! R37   R(30,35)                1.5103         calculate D2E/DX2 analytically  !
 ! R38   R(31,32)                1.0982         calculate D2E/DX2 analytically  !
 ! R39   R(31,33)                1.4144         calculate D2E/DX2 analytically  !
 ! R40   R(33,34)                1.2857         calculate D2E/DX2 analytically  !
 ! R41   R(33,39)                1.5106         calculate D2E/DX2 analytically  !
 ! R42   R(35,36)                1.1049         calculate D2E/DX2 analytically  !
 ! R43   R(35,37)                1.1091         calculate D2E/DX2 analytically  !
 ! R44   R(35,38)                1.1096         calculate D2E/DX2 analytically  !
 ! R45   R(39,40)                1.1091         calculate D2E/DX2 analytically  !
 ! R46   R(39,41)                1.1049         calculate D2E/DX2 analytically  !
 ! R47   R(39,42)                1.1092         calculate D2E/DX2 analytically  !
 ! R48   R(43,44)                1.2913         calculate D2E/DX2 analytically  !
 ! R49   R(44,45)                1.411          calculate D2E/DX2 analytically  !
 ! R50   R(44,49)                1.512          calculate D2E/DX2 analytically  !
 ! R51   R(45,46)                1.0985         calculate D2E/DX2 analytically  !
 ! R52   R(45,47)                1.421          calculate D2E/DX2 analytically  !
 ! R53   R(47,48)                1.2768         calculate D2E/DX2 analytically  !
 ! R54   R(47,53)                1.5154         calculate D2E/DX2 analytically  !
 ! R55   R(49,50)                1.1049         calculate D2E/DX2 analytically  !
 ! R56   R(49,51)                1.109          calculate D2E/DX2 analytically  !
 ! R57   R(49,52)                1.1096         calculate D2E/DX2 analytically  !
 ! R58   R(53,54)                1.1091         calculate D2E/DX2 analytically  !
 ! R59   R(53,55)                1.1053         calculate D2E/DX2 analytically  !
 ! R60   R(53,56)                1.1097         calculate D2E/DX2 analytically  !
 ! A1    A(2,1,3)               92.7011         calculate D2E/DX2 analytically  !
 ! A2    A(2,1,29)              90.7337         calculate D2E/DX2 analytically  !
 ! A3    A(2,1,34)              90.2149         calculate D2E/DX2 analytically  !
 ! A4    A(2,1,43)              89.839          calculate D2E/DX2 analytically  !
 ! A5    A(3,1,29)              86.8248         calculate D2E/DX2 analytically  !
 ! A6    A(3,1,43)              92.7635         calculate D2E/DX2 analytically  !
 ! A7    A(3,1,48)              88.4885         calculate D2E/DX2 analytically  !
 ! A8    A(29,1,34)             93.9744         calculate D2E/DX2 analytically  !
 ! A9    A(29,1,48)             87.2047         calculate D2E/DX2 analytically  !
 ! A10   A(34,1,43)             86.4085         calculate D2E/DX2 analytically  !
 ! A11   A(34,1,48)             88.6286         calculate D2E/DX2 analytically  !
 ! A12   A(43,1,48)             92.2314         calculate D2E/DX2 analytically  !
 ! A13   A(1,3,4)              116.4352         calculate D2E/DX2 analytically  !
 ! A14   A(1,3,17)             126.0535         calculate D2E/DX2 analytically  !
 ! A15   A(4,3,17)             117.5063         calculate D2E/DX2 analytically  !
 ! A16   A(3,4,5)              115.2422         calculate D2E/DX2 analytically  !
 ! A17   A(3,4,6)              122.7007         calculate D2E/DX2 analytically  !
 ! A18   A(5,4,6)              122.0269         calculate D2E/DX2 analytically  !
 ! A19   A(4,6,7)              121.1209         calculate D2E/DX2 analytically  !
 ! A20   A(4,6,18)             120.6248         calculate D2E/DX2 analytically  !
 ! A21   A(7,6,18)             118.2473         calculate D2E/DX2 analytically  !
 ! A22   A(6,7,8)              117.6717         calculate D2E/DX2 analytically  !
 ! A23   A(7,8,9)              118.6965         calculate D2E/DX2 analytically  !
 ! A24   A(7,8,17)             122.6154         calculate D2E/DX2 analytically  !
 ! A25   A(9,8,17)             118.6874         calculate D2E/DX2 analytically  !
 ! A26   A(8,9,10)             116.9785         calculate D2E/DX2 analytically  !
 ! A27   A(8,9,11)             120.6387         calculate D2E/DX2 analytically  !
 ! A28   A(10,9,11)            122.3821         calculate D2E/DX2 analytically  !
 ! A29   A(9,11,12)            120.0682         calculate D2E/DX2 analytically  !
 ! A30   A(9,11,13)            120.1456         calculate D2E/DX2 analytically  !
 ! A31   A(12,11,13)           119.7852         calculate D2E/DX2 analytically  !
 ! A32   A(11,13,14)           119.7293         calculate D2E/DX2 analytically  !
 ! A33   A(11,13,15)           120.9484         calculate D2E/DX2 analytically  !
 ! A34   A(14,13,15)           119.3217         calculate D2E/DX2 analytically  !
 ! A35   A(13,15,16)           121.4464         calculate D2E/DX2 analytically  !
 ! A36   A(13,15,17)           119.8538         calculate D2E/DX2 analytically  !
 ! A37   A(16,15,17)           118.6972         calculate D2E/DX2 analytically  !
 ! A38   A(3,17,8)             118.3571         calculate D2E/DX2 analytically  !
 ! A39   A(3,17,15)            121.9192         calculate D2E/DX2 analytically  !
 ! A40   A(8,17,15)            119.7221         calculate D2E/DX2 analytically  !
 ! A41   A(6,18,19)            119.0088         calculate D2E/DX2 analytically  !
 ! A42   A(6,18,27)            122.3564         calculate D2E/DX2 analytically  !
 ! A43   A(19,18,27)           118.6343         calculate D2E/DX2 analytically  !
 ! A44   A(18,19,20)           117.7889         calculate D2E/DX2 analytically  !
 ! A45   A(18,19,21)           120.6894         calculate D2E/DX2 analytically  !
 ! A46   A(20,19,21)           121.5216         calculate D2E/DX2 analytically  !
 ! A47   A(19,21,22)           119.7435         calculate D2E/DX2 analytically  !
 ! A48   A(19,21,23)           120.235          calculate D2E/DX2 analytically  !
 ! A49   A(22,21,23)           120.0215         calculate D2E/DX2 analytically  !
 ! A50   A(21,23,24)           120.2539         calculate D2E/DX2 analytically  !
 ! A51   A(21,23,25)           119.5973         calculate D2E/DX2 analytically  !
 ! A52   A(24,23,25)           120.1486         calculate D2E/DX2 analytically  !
 ! A53   A(23,25,26)           120.1087         calculate D2E/DX2 analytically  !
 ! A54   A(23,25,27)           120.2875         calculate D2E/DX2 analytically  !
 ! A55   A(26,25,27)           119.6033         calculate D2E/DX2 analytically  !
 ! A56   A(18,27,25)           120.5547         calculate D2E/DX2 analytically  !
 ! A57   A(18,27,28)           120.4993         calculate D2E/DX2 analytically  !
 ! A58   A(25,27,28)           118.9375         calculate D2E/DX2 analytically  !
 ! A59   A(1,29,30)            123.2433         calculate D2E/DX2 analytically  !
 ! A60   A(29,30,31)           126.1486         calculate D2E/DX2 analytically  !
 ! A61   A(29,30,35)           113.7882         calculate D2E/DX2 analytically  !
 ! A62   A(31,30,35)           120.0617         calculate D2E/DX2 analytically  !
 ! A63   A(30,31,32)           116.3143         calculate D2E/DX2 analytically  !
 ! A64   A(30,31,33)           127.2791         calculate D2E/DX2 analytically  !
 ! A65   A(32,31,33)           116.4066         calculate D2E/DX2 analytically  !
 ! A66   A(31,33,34)           126.1544         calculate D2E/DX2 analytically  !
 ! A67   A(31,33,39)           119.7769         calculate D2E/DX2 analytically  !
 ! A68   A(34,33,39)           114.0687         calculate D2E/DX2 analytically  !
 ! A69   A(1,34,33)            123.0683         calculate D2E/DX2 analytically  !
 ! A70   A(30,35,36)           112.4752         calculate D2E/DX2 analytically  !
 ! A71   A(30,35,37)           109.6152         calculate D2E/DX2 analytically  !
 ! A72   A(30,35,38)           109.5602         calculate D2E/DX2 analytically  !
 ! A73   A(36,35,37)           109.288          calculate D2E/DX2 analytically  !
 ! A74   A(36,35,38)           109.0242         calculate D2E/DX2 analytically  !
 ! A75   A(37,35,38)           106.7093         calculate D2E/DX2 analytically  !
 ! A76   A(33,39,40)           109.3704         calculate D2E/DX2 analytically  !
 ! A77   A(33,39,41)           112.6407         calculate D2E/DX2 analytically  !
 ! A78   A(33,39,42)           109.4418         calculate D2E/DX2 analytically  !
 ! A79   A(40,39,41)           109.3208         calculate D2E/DX2 analytically  !
 ! A80   A(40,39,42)           106.6582         calculate D2E/DX2 analytically  !
 ! A81   A(41,39,42)           109.2301         calculate D2E/DX2 analytically  !
 ! A82   A(1,43,44)            123.9128         calculate D2E/DX2 analytically  !
 ! A83   A(43,44,45)           127.6603         calculate D2E/DX2 analytically  !
 ! A84   A(43,44,49)           112.9176         calculate D2E/DX2 analytically  !
 ! A85   A(45,44,49)           119.421          calculate D2E/DX2 analytically  !
 ! A86   A(44,45,46)           115.4613         calculate D2E/DX2 analytically  !
 ! A87   A(44,45,47)           128.5403         calculate D2E/DX2 analytically  !
 ! A88   A(46,45,47)           115.9956         calculate D2E/DX2 analytically  !
 ! A89   A(45,47,48)           125.9891         calculate D2E/DX2 analytically  !
 ! A90   A(45,47,53)           118.8002         calculate D2E/DX2 analytically  !
 ! A91   A(48,47,53)           115.2101         calculate D2E/DX2 analytically  !
 ! A92   A(1,48,47)            121.6183         calculate D2E/DX2 analytically  !
 ! A93   A(44,49,50)           112.6758         calculate D2E/DX2 analytically  !
 ! A94   A(44,49,51)           109.3848         calculate D2E/DX2 analytically  !
 ! A95   A(44,49,52)           109.3257         calculate D2E/DX2 analytically  !
 ! A96   A(50,49,51)           109.3281         calculate D2E/DX2 analytically  !
 ! A97   A(50,49,52)           109.2239         calculate D2E/DX2 analytically  !
 ! A98   A(51,49,52)           106.7258         calculate D2E/DX2 analytically  !
 ! A99   A(47,53,54)           109.2538         calculate D2E/DX2 analytically  !
 ! A100  A(47,53,55)           113.2143         calculate D2E/DX2 analytically  !
 ! A101  A(47,53,56)           109.1094         calculate D2E/DX2 analytically  !
 ! A102  A(54,53,55)           109.3411         calculate D2E/DX2 analytically  !
 ! A103  A(54,53,56)           106.5901         calculate D2E/DX2 analytically  !
 ! A104  A(55,53,56)           109.1173         calculate D2E/DX2 analytically  !
 ! A105  L(2,1,48,3,-1)        181.1896         calculate D2E/DX2 analytically  !
 ! A106  L(3,1,34,2,-1)        182.9161         calculate D2E/DX2 analytically  !
 ! A107  L(29,1,43,2,-1)       180.5728         calculate D2E/DX2 analytically  !
 ! A108  L(2,1,48,3,-2)        182.1309         calculate D2E/DX2 analytically  !
 ! A109  L(3,1,34,2,-2)        180.8332         calculate D2E/DX2 analytically  !
 ! A110  L(29,1,43,2,-2)       180.3853         calculate D2E/DX2 analytically  !
 ! D1    D(2,1,3,4)           -137.4257         calculate D2E/DX2 analytically  !
 ! D2    D(2,1,3,17)            43.4123         calculate D2E/DX2 analytically  !
 ! D3    D(29,1,3,4)           -46.84           calculate D2E/DX2 analytically  !
 ! D4    D(29,1,3,17)          133.998          calculate D2E/DX2 analytically  !
 ! D5    D(43,1,3,4)           132.6052         calculate D2E/DX2 analytically  !
 ! D6    D(43,1,3,17)          -46.5568         calculate D2E/DX2 analytically  !
 ! D7    D(48,1,3,4)            40.4434         calculate D2E/DX2 analytically  !
 ! D8    D(48,1,3,17)         -138.7186         calculate D2E/DX2 analytically  !
 ! D9    D(2,1,29,30)          -93.8666         calculate D2E/DX2 analytically  !
 ! D10   D(3,1,29,30)          173.4687         calculate D2E/DX2 analytically  !
 ! D11   D(34,1,29,30)          -3.6001         calculate D2E/DX2 analytically  !
 ! D12   D(48,1,29,30)          84.8291         calculate D2E/DX2 analytically  !
 ! D13   D(2,1,34,33)           94.3425         calculate D2E/DX2 analytically  !
 ! D14   D(29,1,34,33)           3.5921         calculate D2E/DX2 analytically  !
 ! D15   D(43,1,34,33)        -175.8323         calculate D2E/DX2 analytically  !
 ! D16   D(48,1,34,33)         -83.5097         calculate D2E/DX2 analytically  !
 ! D17   D(2,1,43,44)         -179.8639         calculate D2E/DX2 analytically  !
 ! D18   D(3,1,43,44)          -87.1674         calculate D2E/DX2 analytically  !
 ! D19   D(34,1,43,44)          89.9106         calculate D2E/DX2 analytically  !
 ! D20   D(48,1,43,44)           1.426          calculate D2E/DX2 analytically  !
 ! D21   D(3,1,48,47)           90.4145         calculate D2E/DX2 analytically  !
 ! D22   D(29,1,48,47)         177.3083         calculate D2E/DX2 analytically  !
 ! D23   D(34,1,48,47)         -88.6443         calculate D2E/DX2 analytically  !
 ! D24   D(43,1,48,47)          -2.2931         calculate D2E/DX2 analytically  !
 ! D25   D(1,3,4,5)             -1.4165         calculate D2E/DX2 analytically  !
 ! D26   D(1,3,4,6)           -179.4564         calculate D2E/DX2 analytically  !
 ! D27   D(17,3,4,5)           177.8197         calculate D2E/DX2 analytically  !
 ! D28   D(17,3,4,6)            -0.2202         calculate D2E/DX2 analytically  !
 ! D29   D(1,3,17,8)           177.9826         calculate D2E/DX2 analytically  !
 ! D30   D(1,3,17,15)           -1.5594         calculate D2E/DX2 analytically  !
 ! D31   D(4,3,17,8)            -1.1714         calculate D2E/DX2 analytically  !
 ! D32   D(4,3,17,15)          179.2866         calculate D2E/DX2 analytically  !
 ! D33   D(3,4,6,7)              1.5296         calculate D2E/DX2 analytically  !
 ! D34   D(3,4,6,18)          -179.4536         calculate D2E/DX2 analytically  !
 ! D35   D(5,4,6,7)           -176.3792         calculate D2E/DX2 analytically  !
 ! D36   D(5,4,6,18)             2.6377         calculate D2E/DX2 analytically  !
 ! D37   D(4,6,7,8)             -1.2478         calculate D2E/DX2 analytically  !
 ! D38   D(18,6,7,8)           179.7126         calculate D2E/DX2 analytically  !
 ! D39   D(4,6,18,19)         -170.5172         calculate D2E/DX2 analytically  !
 ! D40   D(4,6,18,27)            9.7104         calculate D2E/DX2 analytically  !
 ! D41   D(7,6,18,19)            8.5274         calculate D2E/DX2 analytically  !
 ! D42   D(7,6,18,27)         -171.245          calculate D2E/DX2 analytically  !
 ! D43   D(6,7,8,9)           -179.8915         calculate D2E/DX2 analytically  !
 ! D44   D(6,7,8,17)            -0.1985         calculate D2E/DX2 analytically  !
 ! D45   D(7,8,9,10)            -0.2387         calculate D2E/DX2 analytically  !
 ! D46   D(7,8,9,11)           179.4432         calculate D2E/DX2 analytically  !
 ! D47   D(17,8,9,10)         -179.944          calculate D2E/DX2 analytically  !
 ! D48   D(17,8,9,11)           -0.2621         calculate D2E/DX2 analytically  !
 ! D49   D(7,8,17,3)             1.4507         calculate D2E/DX2 analytically  !
 ! D50   D(7,8,17,15)         -178.9969         calculate D2E/DX2 analytically  !
 ! D51   D(9,8,17,3)          -178.8562         calculate D2E/DX2 analytically  !
 ! D52   D(9,8,17,15)            0.6962         calculate D2E/DX2 analytically  !
 ! D53   D(8,9,11,12)         -179.8481         calculate D2E/DX2 analytically  !
 ! D54   D(8,9,11,13)           -0.2206         calculate D2E/DX2 analytically  !
 ! D55   D(10,9,11,12)          -0.1838         calculate D2E/DX2 analytically  !
 ! D56   D(10,9,11,13)         179.4438         calculate D2E/DX2 analytically  !
 ! D57   D(9,11,13,14)        -179.4706         calculate D2E/DX2 analytically  !
 ! D58   D(9,11,13,15)           0.2769         calculate D2E/DX2 analytically  !
 ! D59   D(12,11,13,14)          0.158          calculate D2E/DX2 analytically  !
 ! D60   D(12,11,13,15)        179.9055         calculate D2E/DX2 analytically  !
 ! D61   D(11,13,15,16)        179.5686         calculate D2E/DX2 analytically  !
 ! D62   D(11,13,15,17)          0.1652         calculate D2E/DX2 analytically  !
 ! D63   D(14,13,15,16)         -0.6828         calculate D2E/DX2 analytically  !
 ! D64   D(14,13,15,17)        179.9138         calculate D2E/DX2 analytically  !
 ! D65   D(13,15,17,3)         178.8858         calculate D2E/DX2 analytically  !
 ! D66   D(13,15,17,8)          -0.6502         calculate D2E/DX2 analytically  !
 ! D67   D(16,15,17,3)          -0.534          calculate D2E/DX2 analytically  !
 ! D68   D(16,15,17,8)         179.93           calculate D2E/DX2 analytically  !
 ! D69   D(6,18,19,20)          -0.2622         calculate D2E/DX2 analytically  !
 ! D70   D(6,18,19,21)         179.7704         calculate D2E/DX2 analytically  !
 ! D71   D(27,18,19,20)        179.5188         calculate D2E/DX2 analytically  !
 ! D72   D(27,18,19,21)         -0.4487         calculate D2E/DX2 analytically  !
 ! D73   D(6,18,27,25)        -179.8615         calculate D2E/DX2 analytically  !
 ! D74   D(6,18,27,28)           1.2094         calculate D2E/DX2 analytically  !
 ! D75   D(19,18,27,25)          0.3652         calculate D2E/DX2 analytically  !
 ! D76   D(19,18,27,28)       -178.5638         calculate D2E/DX2 analytically  !
 ! D77   D(18,19,21,22)       -179.7903         calculate D2E/DX2 analytically  !
 ! D78   D(18,19,21,23)          0.1748         calculate D2E/DX2 analytically  !
 ! D79   D(20,19,21,22)          0.2435         calculate D2E/DX2 analytically  !
 ! D80   D(20,19,21,23)       -179.7915         calculate D2E/DX2 analytically  !
 ! D81   D(19,21,23,24)        179.9956         calculate D2E/DX2 analytically  !
 ! D82   D(19,21,23,25)          0.1897         calculate D2E/DX2 analytically  !
 ! D83   D(22,21,23,24)         -0.0395         calculate D2E/DX2 analytically  !
 ! D84   D(22,21,23,25)       -179.8453         calculate D2E/DX2 analytically  !
 ! D85   D(21,23,25,26)        179.4734         calculate D2E/DX2 analytically  !
 ! D86   D(21,23,25,27)         -0.2725         calculate D2E/DX2 analytically  !
 ! D87   D(24,23,25,26)         -0.3327         calculate D2E/DX2 analytically  !
 ! D88   D(24,23,25,27)        179.9214         calculate D2E/DX2 analytically  !
 ! D89   D(23,25,27,18)         -0.0081         calculate D2E/DX2 analytically  !
 ! D90   D(23,25,27,28)        178.9375         calculate D2E/DX2 analytically  !
 ! D91   D(26,25,27,18)       -179.7553         calculate D2E/DX2 analytically  !
 ! D92   D(26,25,27,28)         -0.8097         calculate D2E/DX2 analytically  !
 ! D93   D(1,29,30,31)           2.6952         calculate D2E/DX2 analytically  !
 ! D94   D(1,29,30,35)        -177.756          calculate D2E/DX2 analytically  !
 ! D95   D(29,30,31,32)        179.6897         calculate D2E/DX2 analytically  !
 ! D96   D(29,30,31,33)         -0.4372         calculate D2E/DX2 analytically  !
 ! D97   D(35,30,31,32)          0.1667         calculate D2E/DX2 analytically  !
 ! D98   D(35,30,31,33)       -179.9602         calculate D2E/DX2 analytically  !
 ! D99   D(29,30,35,36)        175.8591         calculate D2E/DX2 analytically  !
 ! D100  D(29,30,35,37)         54.061          calculate D2E/DX2 analytically  !
 ! D101  D(29,30,35,38)        -62.7176         calculate D2E/DX2 analytically  !
 ! D102  D(31,30,35,36)         -4.5619         calculate D2E/DX2 analytically  !
 ! D103  D(31,30,35,37)       -126.3599         calculate D2E/DX2 analytically  !
 ! D104  D(31,30,35,38)        116.8614         calculate D2E/DX2 analytically  !
 ! D105  D(30,31,33,34)          0.4352         calculate D2E/DX2 analytically  !
 ! D106  D(30,31,33,39)       -179.6812         calculate D2E/DX2 analytically  !
 ! D107  D(32,31,33,34)       -179.6918         calculate D2E/DX2 analytically  !
 ! D108  D(32,31,33,39)          0.1918         calculate D2E/DX2 analytically  !
 ! D109  D(31,33,34,1)          -2.675          calculate D2E/DX2 analytically  !
 ! D110  D(39,33,34,1)         177.4356         calculate D2E/DX2 analytically  !
 ! D111  D(31,33,39,40)        122.9219         calculate D2E/DX2 analytically  !
 ! D112  D(31,33,39,41)          1.1437         calculate D2E/DX2 analytically  !
 ! D113  D(31,33,39,42)       -120.5694         calculate D2E/DX2 analytically  !
 ! D114  D(34,33,39,40)        -57.181          calculate D2E/DX2 analytically  !
 ! D115  D(34,33,39,41)       -178.9592         calculate D2E/DX2 analytically  !
 ! D116  D(34,33,39,42)         59.3277         calculate D2E/DX2 analytically  !
 ! D117  D(1,43,44,45)          -0.0942         calculate D2E/DX2 analytically  !
 ! D118  D(1,43,44,49)         179.5084         calculate D2E/DX2 analytically  !
 ! D119  D(43,44,45,46)        179.3709         calculate D2E/DX2 analytically  !
 ! D120  D(43,44,45,47)         -1.2653         calculate D2E/DX2 analytically  !
 ! D121  D(49,44,45,46)         -0.2089         calculate D2E/DX2 analytically  !
 ! D122  D(49,44,45,47)        179.1548         calculate D2E/DX2 analytically  !
 ! D123  D(43,44,49,50)        179.3041         calculate D2E/DX2 analytically  !
 ! D124  D(43,44,49,51)         57.4828         calculate D2E/DX2 analytically  !
 ! D125  D(43,44,49,52)        -59.0494         calculate D2E/DX2 analytically  !
 ! D126  D(45,44,49,50)         -1.0571         calculate D2E/DX2 analytically  !
 ! D127  D(45,44,49,51)       -122.8783         calculate D2E/DX2 analytically  !
 ! D128  D(45,44,49,52)        120.5895         calculate D2E/DX2 analytically  !
 ! D129  D(44,45,47,48)          0.1205         calculate D2E/DX2 analytically  !
 ! D130  D(44,45,47,53)        179.8342         calculate D2E/DX2 analytically  !
 ! D131  D(46,45,47,48)        179.4814         calculate D2E/DX2 analytically  !
 ! D132  D(46,45,47,53)         -0.8049         calculate D2E/DX2 analytically  !
 ! D133  D(45,47,48,1)           1.8912         calculate D2E/DX2 analytically  !
 ! D134  D(53,47,48,1)        -177.8315         calculate D2E/DX2 analytically  !
 ! D135  D(45,47,53,54)        123.6034         calculate D2E/DX2 analytically  !
 ! D136  D(45,47,53,55)          1.4947         calculate D2E/DX2 analytically  !
 ! D137  D(45,47,53,56)       -120.223          calculate D2E/DX2 analytically  !
 ! D138  D(48,47,53,54)        -56.6527         calculate D2E/DX2 analytically  !
 ! D139  D(48,47,53,55)       -178.7614         calculate D2E/DX2 analytically  !
 ! D140  D(48,47,53,56)         59.521          calculate D2E/DX2 analytically  !
 --------------------------------------------------------------------------------
 Trust Radius=3.00D-01 FncErr=1.00D-07 GrdErr=1.00D-07 EigMax=2.50D+02 EigMin=1.00D-04
 Number of steps in this run=      2 maximum allowed number of steps=      2.
 GradGradGradGradGradGradGradGradGradGradGradGradGradGradGradGradGradGrad

 Leave Link  103 at Tue Jul  6 05:16:27 2021, MaxMem=  3355443200 cpu:               1.3 elap:               0.3
 (Enter /cluster/software/Gaussian/g16_C.01/l202.exe)
 Stoichiometry    C24H25IrN2O4
 Framework group  C1[X(C24H25IrN2O4)]
 Deg. of freedom   162
 Full point group                 C1      NOp   1
 RotChk:  IX=0 Diff= 1.46D-15
 Largest Abelian subgroup         C1      NOp   1
 Largest concise Abelian subgroup C1      NOp   1
                         Standard orientation:                         
 ---------------------------------------------------------------------
 Center     Atomic      Atomic             Coordinates (Angstroms)
 Number     Number       Type             X           Y           Z
 ---------------------------------------------------------------------
      1         77           0       -1.339211    0.079206   -0.361021
      2          1           0       -1.744384    0.823097   -1.698982
      3          7           0        0.559518    0.732394   -0.460712
      4          6           0        1.516895   -0.164342   -0.168083
      5          1           0        1.154659   -1.157481    0.119291
      6          6           0        2.902830    0.157426   -0.185692
      7          7           0        3.320158    1.391493   -0.469124
      8          6           0        2.376961    2.324297   -0.765855
      9          6           0        2.799199    3.650707   -1.074667
     10          1           0        3.880389    3.848117   -1.051080
     11          6           0        1.872429    4.630681   -1.394268
     12          1           0        2.208925    5.650806   -1.633517
     13          6           0        0.487955    4.320418   -1.421837
     14          1           0       -0.241117    5.101400   -1.684944
     15          6           0        0.036339    3.039421   -1.125720
     16          1           0       -1.031931    2.792453   -1.137741
     17          6           0        0.966030    2.024060   -0.787066
     18          6           0        3.923759   -0.874277    0.134255
     19          6           0        5.268974   -0.477148    0.305625
     20          1           0        5.507142    0.589631    0.189470
     21          6           0        6.257812   -1.418227    0.612165
     22          1           0        7.300340   -1.091163    0.745735
     23          6           0        5.923774   -2.776275    0.750256
     24          1           0        6.701448   -3.516888    0.991332
     25          6           0        4.592027   -3.184010    0.574800
     26          1           0        4.322548   -4.246559    0.672439
     27          6           0        3.599212   -2.243241    0.269404
     28          1           0        2.566489   -2.589355    0.119258
     29          8           0       -0.720067   -1.536135   -1.415916
     30          6           0       -1.473484   -2.553912   -1.656886
     31          6           0       -2.829074   -2.692128   -1.288637
     32          1           0       -3.319993   -3.629708   -1.581750
     33          6           0       -3.624401   -1.759626   -0.582655
     34          8           0       -3.244489   -0.607470   -0.156795
     35          6           0       -0.778991   -3.659982   -2.415452
     36          1           0       -1.420678   -4.549804   -2.546439
     37          1           0        0.148179   -3.952308   -1.881655
     38          1           0       -0.468589   -3.287793   -3.413616
     39          6           0       -5.065466   -2.087428   -0.270177
     40          1           0       -5.226790   -2.028835    0.825541
     41          1           0       -5.361494   -3.089165   -0.630204
     42          1           0       -5.725831   -1.324056   -0.730066
     43          8           0       -1.942958    1.696523    0.714257
     44          6           0       -1.881186    1.769407    2.002064
     45          6           0       -1.406143    0.789375    2.899225
     46          1           0       -1.434891    1.067887    3.961398
     47          6           0       -0.909096   -0.509849    2.609263
     48          8           0       -0.801438   -1.030139    1.448251
     49          6           0       -2.384951    3.088818    2.541952
     50          1           0       -2.341762    3.142196    3.644670
     51          1           0       -3.430143    3.248450    2.207404
     52          1           0       -1.782350    3.915503    2.112289
     53          6           0       -0.448627   -1.387902    3.755284
     54          1           0       -1.008780   -2.344797    3.730789
     55          1           0       -0.576437   -0.914149    4.745726
     56          1           0        0.621489   -1.643369    3.609970
 ---------------------------------------------------------------------
 Rotational constants (GHZ):           0.1624082           0.1029764           0.0824792
 Leave Link  202 at Tue Jul  6 05:16:41 2021, MaxMem=  3355443200 cpu:               0.8 elap:               3.3
 (Enter /cluster/software/Gaussian/g16_C.01/l301.exe)
 Standard basis: def2SVP (5D, 7F)
 Ernie: Thresh=  0.10000D-02 Tol=  0.10000D-05 Strict=F.
 There are   612 symmetry adapted cartesian basis functions of A   symmetry.
 There are   577 symmetry adapted basis functions of A   symmetry.
   577 basis functions,   990 primitive gaussians,   612 cartesian basis functions
   116 alpha electrons      116 beta electrons
       nuclear repulsion energy      3360.9168409176 Hartrees.
 IExCor= 1009 DFT=T Ex=PBE Corr=PBE ExCW=0 ScaHFX=  0.000000
 ScaDFX=  1.000000  1.000000  1.000000  1.000000 ScalE2=  1.000000  1.000000
 IRadAn=      5 IRanWt=     -1 IRanGd=            0 ICorTp=0 IEmpDi=141
 NAtoms=   56 NActive=   56 NUniq=   56 SFac= 1.00D+00 NAtFMM=   60 NAOKFM=F Big=F
 Integral buffers will be    131072 words long.
 Raffenetti 2 integral format.
 Two-electron integral symmetry is turned on.
 R6Disp:  Grimme-D3(BJ) Dispersion energy=       -0.0792190119 Hartrees.
 Nuclear repulsion after empirical dispersion term =     3360.8376219057 Hartrees.
 Leave Link  301 at Tue Jul  6 05:16:43 2021, MaxMem=  3355443200 cpu:               7.8 elap:               0.8
 (Enter /cluster/software/Gaussian/g16_C.01/l302.exe)
 NPDir=0 NMtPBC=     1 NCelOv=     1 NCel=       1 NClECP=     1 NCelD=      1
         NCelK=      1 NCelE2=     1 NClLst=     1 CellRange=     0.0.
 One-electron integrals computed using PRISM.
 One-electron integral symmetry used in STVInt
   1 Symmetry operations used in ECPInt.
 ECPInt:  NShTT=   35778 NPrTT=  127738 LenC2=   30546 LenP2D=   71555.
 LDataN:  DoStor=T MaxTD1= 8 Len=  415
 NBasis=   577 RedAO= T EigKep=  2.22D-04  NBF=   577
 NBsUse=   577 1.00D-06 EigRej= -1.00D+00 NBFU=   577
 Precomputing XC quadrature grid using
 IXCGrd= 4 IRadAn=           5 IRanWt=          -1 IRanGd=           0 AccXCQ= 0.00D+00.
 Defaulting to unpruned grid for atomic number  77.
 Generated NRdTot=       0 NPtTot=           0 NUsed=           0 NTot=          32
 NSgBfM=   608   608   608   608   608 MxSgAt=    56 MxSgA2=    56.
 Leave Link  302 at Tue Jul  6 05:16:48 2021, MaxMem=  3355443200 cpu:              45.9 elap:               3.0
 (Enter /cluster/software/Gaussian/g16_C.01/l303.exe)
 DipDrv:  MaxL=1.
 Leave Link  303 at Tue Jul  6 05:16:58 2021, MaxMem=  3355443200 cpu:               8.1 elap:               1.6
 (Enter /cluster/software/Gaussian/g16_C.01/l401.exe)
 Initial guess from the checkpoint file:  "OREDIA.chk"
 B after Tr=    -0.000000   -0.000000    0.000000
         Rot=    1.000000    0.000000    0.000000    0.000000 Ang=   0.00 deg.
 Guess basis will be translated and rotated to current coordinates.
 JPrj=2 DoOrth=T DoCkMO=T.
 Leave Link  401 at Tue Jul  6 05:17:15 2021, MaxMem=  3355443200 cpu:             171.8 elap:              10.2
 (Enter /cluster/software/Gaussian/g16_C.01/l502.exe)
 Integral symmetry usage will be decided dynamically.
 Closed shell SCF:
 Using DIIS extrapolation, IDIIS=  1040.
 NGot=  3355443200 LenX=  3354673942 LenY=  3354298786
 Requested convergence on RMS density matrix=1.00D-08 within 128 cycles.
 Requested convergence on MAX density matrix=1.00D-06.
 Requested convergence on             energy=1.00D-06.
 No special actions if energy rises.
 Fock matrices will be formed incrementally for  20 cycles.

 Cycle   1  Pass 1  IDiag  1:
 FoFJK:  IHMeth= 1 ICntrl=     500 DoSepK=F KAlg= 0 I1Cent=           0 FoldK=F
 IRaf= 770000000 NMat=       1 IRICut=       1 DoRegI=T DoRafI=F ISym2E= 0 IDoP0=0 IntGTp=1.
 FoFCou: FMM=F IPFlag=           0 FMFlag=      100000 FMFlg1=           0
         NFxFlg=           0 DoJE=T BraDBF=F KetDBF=F FulRan=T
         wScrn=  0.000000 ICntrl=       500 IOpCl=  0 I1Cent=           0 NGrid=           0
         NMat0=    1 NMatS0=      1 NMatT0=    0 NMatD0=    1 NMtDS0=    0 NMtDT0=    0
 Symmetry not used in FoFCou.
 Defaulting to unpruned grid for atomic number  77.
 Defaulting to unpruned grid for atomic number  77.
 Defaulting to unpruned grid for atomic number  77.
 Defaulting to unpruned grid for atomic number  77.
 Defaulting to unpruned grid for atomic number  77.
 Defaulting to unpruned grid for atomic number  77.
 Defaulting to unpruned grid for atomic number  77.
 Defaulting to unpruned grid for atomic number  77.
 Defaulting to unpruned grid for atomic number  77.
 Defaulting to unpruned grid for atomic number  77.
 Defaulting to unpruned grid for atomic number  77.
 Defaulting to unpruned grid for atomic number  77.
 Defaulting to unpruned grid for atomic number  77.
 Defaulting to unpruned grid for atomic number  77.
 Defaulting to unpruned grid for atomic number  77.
 Defaulting to unpruned grid for atomic number  77.
 Defaulting to unpruned grid for atomic number  77.
 Defaulting to unpruned grid for atomic number  77.
 Defaulting to unpruned grid for atomic number  77.
 Defaulting to unpruned grid for atomic number  77.
 E= -1442.03690225032    
 DIIS: error= 3.40D-08 at cycle   1 NSaved=   1.
 NSaved= 1 IEnMin= 1 EnMin= -1442.03690225032     IErMin= 1 ErrMin= 3.40D-08
 ErrMax= 3.40D-08  0.00D+00 EMaxC= 1.00D-01 BMatC= 1.67D-12 BMatP= 1.67D-12
 IDIUse=1 WtCom= 1.00D+00 WtEn= 0.00D+00
 Coeff-Com:  0.100D+01
 Coeff:      0.100D+01
 Gap=     0.057 Goal=   None    Shift=    0.000
 RMSDP=1.00D-08 MaxDP=6.24D-07              OVMax= 1.53D-06

 Cycle   2  Pass 1  IDiag  1:
 RMSU=  1.00D-08    CP:  1.00D+00
 E= -1442.03690225032     Delta-E=        0.000000000001 Rises=F Damp=F
 DIIS: error= 1.10D-07 at cycle   2 NSaved=   2.
 NSaved= 2 IEnMin= 1 EnMin= -1442.03690225032     IErMin= 1 ErrMin= 3.40D-08
 ErrMax= 1.10D-07  0.00D+00 EMaxC= 1.00D-01 BMatC= 1.52D-11 BMatP= 1.67D-12
 IDIUse=1 WtCom= 1.00D+00 WtEn= 0.00D+00
 Coeff-Com:  0.757D+00 0.243D+00
 Coeff:      0.757D+00 0.243D+00
 Gap=     0.057 Goal=   None    Shift=    0.000
 RMSDP=8.31D-09 MaxDP=5.46D-07 DE= 9.09D-13 OVMax= 1.29D-06

 SCF Done:  E(RPBE-PBE) =  -1442.03690225     A.U. after    2 cycles
            NFock=  2  Conv=0.83D-08     -V/T= 2.0609
 KE= 1.359238124008D+03 PE=-1.004981697359D+04 EE= 3.887704325428D+03
 Leave Link  502 at Tue Jul  6 05:18:09 2021, MaxMem=  3355443200 cpu:             741.4 elap:              41.8
 (Enter /cluster/software/Gaussian/g16_C.01/l801.exe)
 DoSCS=F DFT=T ScalE2(SS,OS)=  1.000000  1.000000
 Range of M.O.s used for correlation:     1   577
 NBasis=   577 NAE=   116 NBE=   116 NFC=     0 NFV=     0
 NROrb=    577 NOA=   116 NOB=   116 NVA=   461 NVB=   461

 **** Warning!!: The largest alpha MO coefficient is  0.10655890D+02


 **** Warning!!: The smallest alpha delta epsilon is  0.56817255D-01

 Leave Link  801 at Tue Jul  6 05:18:17 2021, MaxMem=  3355443200 cpu:              27.8 elap:               2.3
 (Enter /cluster/software/Gaussian/g16_C.01/l1101.exe)
 Using compressed storage, NAtomX=    56.
 Will process     57 centers per pass.
   1 Symmetry operations used in ECPInt.
 ECPInt:  NShTT=   35778 NPrTT=  127738 LenC2=   30546 LenP2D=   71555.
 LDataN:  DoStor=T MaxTD1= 9 Len=  602
 Number of processors reduced to  10 by ecpmxn.
 R6Disp: Adding Grimme-D3(BJ) dispersion energy 1st derivatives to the gradient.
 Leave Link 1101 at Tue Jul  6 05:19:01 2021, MaxMem=  3355443200 cpu:             648.2 elap:              35.2
 (Enter /cluster/software/Gaussian/g16_C.01/l1102.exe)
 Symmetrizing basis deriv contribution to polar:
 IMax=3 JMax=2 DiffMx= 0.00D+00
 Leave Link 1102 at Tue Jul  6 05:19:22 2021, MaxMem=  3355443200 cpu:              34.0 elap:               3.9
 (Enter /cluster/software/Gaussian/g16_C.01/l1110.exe)
 Forming Gx(P) for the SCF density, NAtomX=    56.
 Integral derivatives from FoFJK, PRISM(SPDF).
 Do as many integral derivatives as possible in FoFJK.
 G2DrvN: MDV=    3355437072.
 G2DrvN: will do    57 centers at a time, making    1 passes.
 Calling FoFCou, ICntrl=  3507 FMM=F I1Cent=   0 AccDes= 0.00D+00.
 FoFJK:  IHMeth= 1 ICntrl=    3507 DoSepK=F KAlg= 0 I1Cent=           0 FoldK=F
 IRaf=         0 NMat=       1 IRICut=       1 DoRegI=T DoRafI=F ISym2E= 0 IDoP0=0 IntGTp=1.
 FoFCou: FMM=F IPFlag=           0 FMFlag=      100000 FMFlg1=           0
         NFxFlg=           0 DoJE=F BraDBF=F KetDBF=F FulRan=T
         wScrn=  0.000000 ICntrl=      3507 IOpCl=  0 I1Cent=           0 NGrid=           0
         NMat0=    1 NMatS0=      1 NMatT0=    0 NMatD0=    1 NMtDS0=    0 NMtDT0=    0
 Symmetry not used in FoFCou.
 Defaulting to unpruned grid for atomic number  77.
 Defaulting to unpruned grid for atomic number  77.
 Defaulting to unpruned grid for atomic number  77.
 Defaulting to unpruned grid for atomic number  77.
 Defaulting to unpruned grid for atomic number  77.
 Defaulting to unpruned grid for atomic number  77.
 Defaulting to unpruned grid for atomic number  77.
 Defaulting to unpruned grid for atomic number  77.
 Defaulting to unpruned grid for atomic number  77.
 Defaulting to unpruned grid for atomic number  77.
 Defaulting to unpruned grid for atomic number  77.
 Defaulting to unpruned grid for atomic number  77.
 Defaulting to unpruned grid for atomic number  77.
 Defaulting to unpruned grid for atomic number  77.
 Defaulting to unpruned grid for atomic number  77.
 Defaulting to unpruned grid for atomic number  77.
 Defaulting to unpruned grid for atomic number  77.
 Defaulting to unpruned grid for atomic number  77.
 Defaulting to unpruned grid for atomic number  77.
 Defaulting to unpruned grid for atomic number  77.
 End of G2Drv F.D. properties file   721 does not exist.
 End of G2Drv F.D. properties file   722 does not exist.
 End of G2Drv F.D. properties file   788 does not exist.
 Leave Link 1110 at Tue Jul  6 05:23:02 2021, MaxMem=  3355443200 cpu:            4169.5 elap:             212.6
 (Enter /cluster/software/Gaussian/g16_C.01/l1002.exe)
 Minotr:  Closed shell wavefunction.
          IDoAtm=11111111111111111111111111111111111111111111111111
          IDoAtm=111111
          Direct CPHF calculation.
          Differentiating once with respect to electric field.
                with respect to dipole field.
          Differentiating once with respect to nuclear coordinates.
          Requested convergence is 1.0D-08 RMS, and 1.0D-07 maximum.
          Secondary convergence is 1.0D-12 RMS, and 1.0D-12 maximum.
          NewPWx=T KeepS1=F KeepF1=F KeepIn=T MapXYZ=F SortEE=F KeepMc=T.
 Defaulting to unpruned grid for atomic number  77.
        17130 words used for storage of precomputed grid.
 Two-electron integrals replicated using symmetry.
          MDV=    3355443200 using IRadAn=       1.
          Solving linear equations simultaneously, MaxMat=     380.
 FoF2E skips out because all densities are zero.
 CalDSu exits because no D1Ps are significant.
 FoFJK:  IHMeth= 1 ICntrl=     500 DoSepK=F KAlg= 0 I1Cent=           0 FoldK=F
 IRaf= 770000000 NMat=     168 IRICut=       1 DoRegI=T DoRafI=F ISym2E= 2 IDoP0=3 IntGTp=3.
 FoFCou: FMM=F IPFlag=           0 FMFlag=      100000 FMFlg1=           0
         NFxFlg=           0 DoJE=F BraDBF=F KetDBF=F FulRan=T
         wScrn=  0.000000 ICntrl=       500 IOpCl=  0 I1Cent=           0 NGrid=           0
         NMat0=  168 NMatS0=    168 NMatT0=    0 NMatD0=  168 NMtDS0=    0 NMtDT0=    0
 Integrals replicated using symmetry in FoFCou.
 Defaulting to unpruned grid for atomic number  77.
 Defaulting to unpruned grid for atomic number  77.
 Defaulting to unpruned grid for atomic number  77.
 Defaulting to unpruned grid for atomic number  77.
 Defaulting to unpruned grid for atomic number  77.
 Defaulting to unpruned grid for atomic number  77.
 Defaulting to unpruned grid for atomic number  77.
 Defaulting to unpruned grid for atomic number  77.
 Defaulting to unpruned grid for atomic number  77.
 Defaulting to unpruned grid for atomic number  77.
 Defaulting to unpruned grid for atomic number  77.
 Defaulting to unpruned grid for atomic number  77.
 Defaulting to unpruned grid for atomic number  77.
 Defaulting to unpruned grid for atomic number  77.
 Defaulting to unpruned grid for atomic number  77.
 Defaulting to unpruned grid for atomic number  77.
 Defaulting to unpruned grid for atomic number  77.
 Defaulting to unpruned grid for atomic number  77.
 Defaulting to unpruned grid for atomic number  77.
 Defaulting to unpruned grid for atomic number  77.
          There are   171 degrees of freedom in the 1st order CPHF.  IDoFFX=6 NUNeed=     3.
    168 vectors produced by pass  0 Test12= 5.35D-14 1.00D-09 XBig12= 1.79D+03 2.38D+01.
 AX will form   168 AO Fock derivatives at one time.
    168 vectors produced by pass  1 Test12= 5.35D-14 1.00D-09 XBig12= 1.28D+03 5.03D+00.
    168 vectors produced by pass  2 Test12= 5.35D-14 1.00D-09 XBig12= 5.34D+00 1.60D-01.
    168 vectors produced by pass  3 Test12= 5.35D-14 1.00D-09 XBig12= 1.29D-02 7.48D-03.
    158 vectors produced by pass  4 Test12= 5.35D-14 1.00D-09 XBig12= 5.61D-06 1.14D-04.
     38 vectors produced by pass  5 Test12= 5.35D-14 1.00D-09 XBig12= 7.86D-10 1.28D-06.
      3 vectors produced by pass  6 Test12= 5.35D-14 1.00D-09 XBig12= 1.20D-13 1.84D-08.
 InvSVY:  IOpt=1 It=  1 EMax= 2.84D-14
 Solved reduced A of dimension   871 with   171 vectors.
 FullF1:  Do perturbations      1 to       3.
 Isotropic polarizability for W=    0.000000      393.41 Bohr**3.
 End of Minotr F.D. properties file   721 does not exist.
 End of Minotr F.D. properties file   722 does not exist.
 End of Minotr F.D. properties file   788 does not exist.
 Leave Link 1002 at Tue Jul  6 05:46:18 2021, MaxMem=  3355443200 cpu:           26989.8 elap:            1390.7
 (Enter /cluster/software/Gaussian/g16_C.01/l601.exe)
 Copying SCF densities to generalized density rwf, IOpCl= 0 IROHF=0.

 **********************************************************************

            Population analysis using the SCF Density.

 **********************************************************************

 Orbital symmetries:
       Occupied  (A) (A) (A) (A) (A) (A) (A) (A) (A) (A) (A) (A)
                 (A) (A) (A) (A) (A) (A) (A) (A) (A) (A) (A) (A)
                 (A) (A) (A) (A) (A) (A) (A) (A) (A) (A) (A) (A)
                 (A) (A) (A) (A) (A) (A) (A) (A) (A) (A) (A) (A)
                 (A) (A) (A) (A) (A) (A) (A) (A) (A) (A) (A) (A)
                 (A) (A) (A) (A) (A) (A) (A) (A) (A) (A) (A) (A)
                 (A) (A) (A) (A) (A) (A) (A) (A) (A) (A) (A) (A)
                 (A) (A) (A) (A) (A) (A) (A) (A) (A) (A) (A) (A)
                 (A) (A) (A) (A) (A) (A) (A) (A) (A) (A) (A) (A)
                 (A) (A) (A) (A) (A) (A) (A) (A)
       Virtual   (A) (A) (A) (A) (A) (A) (A) (A) (A) (A) (A) (A)
                 (A) (A) (A) (A) (A) (A) (A) (A) (A) (A) (A) (A)
                 (A) (A) (A) (A) (A) (A) (A) (A) (A) (A) (A) (A)
                 (A) (A) (A) (A) (A) (A) (A) (A) (A) (A) (A) (A)
                 (A) (A) (A) (A) (A) (A) (A) (A) (A) (A) (A) (A)
                 (A) (A) (A) (A) (A) (A) (A) (A) (A) (A) (A) (A)
                 (A) (A) (A) (A) (A) (A) (A) (A) (A) (A) (A) (A)
                 (A) (A) (A) (A) (A) (A) (A) (A) (A) (A) (A) (A)
                 (A) (A) (A) (A) (A) (A) (A) (A) (A) (A) (A) (A)
                 (A) (A) (A) (A) (A) (A) (A) (A) (A) (A) (A) (A)
                 (A) (A) (A) (A) (A) (A) (A) (A) (A) (A) (A) (A)
                 (A) (A) (A) (A) (A) (A) (A) (A) (A) (A) (A) (A)
                 (A) (A) (A) (A) (A) (A) (A) (A) (A) (A) (A) (A)
                 (A) (A) (A) (A) (A) (A) (A) (A) (A) (A) (A) (A)
                 (A) (A) (A) (A) (A) (A) (A) (A) (A) (A) (A) (A)
                 (A) (A) (A) (A) (A) (A) (A) (A) (A) (A) (A) (A)
                 (A) (A) (A) (A) (A) (A) (A) (A) (A) (A) (A) (A)
                 (A) (A) (A) (A) (A) (A) (A) (A) (A) (A) (A) (A)
                 (A) (A) (A) (A) (A) (A) (A) (A) (A) (A) (A) (A)
                 (A) (A) (A) (A) (A) (A) (A) (A) (A) (A) (A) (A)
                 (A) (A) (A) (A) (A) (A) (A) (A) (A) (A) (A) (A)
                 (A) (A) (A) (A) (A) (A) (A) (A) (A) (A) (A) (A)
                 (A) (A) (A) (A) (A) (A) (A) (A) (A) (A) (A) (A)
                 (A) (A) (A) (A) (A) (A) (A) (A) (A) (A) (A) (A)
                 (A) (A) (A) (A) (A) (A) (A) (A) (A) (A) (A) (A)
                 (A) (A) (A) (A) (A) (A) (A) (A) (A) (A) (A) (A)
                 (A) (A) (A) (A) (A) (A) (A) (A) (A) (A) (A) (A)
                 (A) (A) (A) (A) (A) (A) (A) (A) (A) (A) (A) (A)
                 (A) (A) (A) (A) (A) (A) (A) (A) (A) (A) (A) (A)
                 (A) (A) (A) (A) (A) (A) (A) (A) (A) (A) (A) (A)
                 (A) (A) (A) (A) (A) (A) (A) (A) (A) (A) (A) (A)
                 (A) (A) (A) (A) (A) (A) (A) (A) (A) (A) (A) (A)
                 (A) (A) (A) (A) (A) (A) (A) (A) (A) (A) (A) (A)
                 (A) (A) (A) (A) (A) (A) (A) (A) (A) (A) (A) (A)
                 (A) (A) (A) (A) (A) (A) (A) (A) (A) (A) (A) (A)
                 (A) (A) (A) (A) (A) (A) (A) (A) (A) (A) (A) (A)
                 (A) (A) (A) (A) (A) (A) (A) (A) (A) (A) (A) (A)
                 (A) (A) (A) (A) (A) (A) (A) (A) (A) (A) (A) (A)
                 (A) (A) (A) (A) (A)
 The electronic state is 1-A.
 Alpha  occ. eigenvalues --  -18.77510 -18.76820 -18.76800 -18.74893 -14.06695
 Alpha  occ. eigenvalues --  -14.00080  -9.96798  -9.96674  -9.96461  -9.96273
 Alpha  occ. eigenvalues --   -9.95248  -9.95145  -9.94635  -9.94590  -9.91619
 Alpha  occ. eigenvalues --   -9.91483  -9.91355  -9.91106  -9.90959  -9.90944
 Alpha  occ. eigenvalues --   -9.90886  -9.90820  -9.90716  -9.90379  -9.90177
 Alpha  occ. eigenvalues --   -9.89856  -9.89678  -9.89510  -9.88264  -9.87812
 Alpha  occ. eigenvalues --   -3.55257  -1.93531  -1.93089  -1.91832  -0.94222
 Alpha  occ. eigenvalues --   -0.93107  -0.92949  -0.91778  -0.90069  -0.83619
 Alpha  occ. eigenvalues --   -0.78072  -0.76783  -0.70659  -0.69796  -0.69207
 Alpha  occ. eigenvalues --   -0.68249  -0.67115  -0.66622  -0.66172  -0.66048
 Alpha  occ. eigenvalues --   -0.62314  -0.61762  -0.60917  -0.59302  -0.55708
 Alpha  occ. eigenvalues --   -0.54093  -0.53437  -0.52039  -0.51453  -0.49980
 Alpha  occ. eigenvalues --   -0.49135  -0.48402  -0.47356  -0.46590  -0.45372
 Alpha  occ. eigenvalues --   -0.44248  -0.43832  -0.42584  -0.42096  -0.41766
 Alpha  occ. eigenvalues --   -0.41082  -0.40665  -0.40088  -0.39675  -0.39213
 Alpha  occ. eigenvalues --   -0.39080  -0.38660  -0.38200  -0.37729  -0.37527
 Alpha  occ. eigenvalues --   -0.37368  -0.37202  -0.36620  -0.36409  -0.35603
 Alpha  occ. eigenvalues --   -0.35343  -0.34862  -0.34739  -0.34343  -0.33873
 Alpha  occ. eigenvalues --   -0.33505  -0.33190  -0.32848  -0.32617  -0.32144
 Alpha  occ. eigenvalues --   -0.31669  -0.31467  -0.31120  -0.30817  -0.30263
 Alpha  occ. eigenvalues --   -0.30062  -0.28917  -0.27691  -0.26055  -0.25844
 Alpha  occ. eigenvalues --   -0.24111  -0.23452  -0.23169  -0.22231  -0.21949
 Alpha  occ. eigenvalues --   -0.21444  -0.21081  -0.20435  -0.18730  -0.17378
 Alpha  occ. eigenvalues --   -0.16783
 Alpha virt. eigenvalues --   -0.11101  -0.07624  -0.06922  -0.06538  -0.04406
 Alpha virt. eigenvalues --   -0.03322  -0.02981  -0.02062  -0.00146   0.02459
 Alpha virt. eigenvalues --    0.03451   0.03965   0.04187   0.04610   0.04730
 Alpha virt. eigenvalues --    0.04874   0.05483   0.06346   0.06752   0.07598
 Alpha virt. eigenvalues --    0.07961   0.08549   0.09210   0.10289   0.10345
 Alpha virt. eigenvalues --    0.10708   0.10977   0.11229   0.11492   0.11813
 Alpha virt. eigenvalues --    0.12076   0.12144   0.12698   0.12893   0.13574
 Alpha virt. eigenvalues --    0.13730   0.14058   0.14216   0.15433   0.16129
 Alpha virt. eigenvalues --    0.17051   0.18458   0.18850   0.19552   0.19900
 Alpha virt. eigenvalues --    0.20040   0.20305   0.20481   0.21003   0.21502
 Alpha virt. eigenvalues --    0.23123   0.23646   0.23785   0.24605   0.24866
 Alpha virt. eigenvalues --    0.25426   0.25599   0.26746   0.27792   0.28636
 Alpha virt. eigenvalues --    0.29487   0.29786   0.30532   0.31976   0.32469
 Alpha virt. eigenvalues --    0.33499   0.34820   0.35487   0.35797   0.36328
 Alpha virt. eigenvalues --    0.37228   0.37519   0.37748   0.37977   0.38638
 Alpha virt. eigenvalues --    0.39059   0.39365   0.39886   0.40064   0.40386
 Alpha virt. eigenvalues --    0.40694   0.40719   0.40858   0.41390   0.41743
 Alpha virt. eigenvalues --    0.42423   0.42461   0.43145   0.43342   0.43855
 Alpha virt. eigenvalues --    0.44033   0.44246   0.44644   0.45075   0.45668
 Alpha virt. eigenvalues --    0.45955   0.46415   0.47126   0.47689   0.48546
 Alpha virt. eigenvalues --    0.48830   0.49686   0.49855   0.50359   0.51408
 Alpha virt. eigenvalues --    0.52847   0.53273   0.53384   0.53680   0.54102
 Alpha virt. eigenvalues --    0.54135   0.54697   0.54742   0.55231   0.55451
 Alpha virt. eigenvalues --    0.55782   0.56211   0.56626   0.57005   0.57587
 Alpha virt. eigenvalues --    0.57841   0.58335   0.58471   0.59322   0.59601
 Alpha virt. eigenvalues --    0.59746   0.59912   0.60255   0.60705   0.61144
 Alpha virt. eigenvalues --    0.61469   0.61566   0.61785   0.62147   0.62369
 Alpha virt. eigenvalues --    0.62468   0.62981   0.63230   0.63876   0.64021
 Alpha virt. eigenvalues --    0.64295   0.64342   0.64956   0.65420   0.65560
 Alpha virt. eigenvalues --    0.65964   0.66236   0.66558   0.66976   0.67270
 Alpha virt. eigenvalues --    0.67345   0.67754   0.68089   0.68191   0.68884
 Alpha virt. eigenvalues --    0.69104   0.69779   0.70361   0.71184   0.71383
 Alpha virt. eigenvalues --    0.72040   0.72282   0.72892   0.74347   0.75003
 Alpha virt. eigenvalues --    0.75176   0.75555   0.75854   0.76198   0.77666
 Alpha virt. eigenvalues --    0.77870   0.78205   0.79594   0.81255   0.82313
 Alpha virt. eigenvalues --    0.82990   0.83610   0.85547   0.85889   0.87441
 Alpha virt. eigenvalues --    0.88631   0.89613   0.90782   0.91673   0.94701
 Alpha virt. eigenvalues --    0.94812   0.96779   0.97989   0.98601   0.99265
 Alpha virt. eigenvalues --    1.01232   1.02544   1.03930   1.04888   1.06091
 Alpha virt. eigenvalues --    1.07229   1.07679   1.08382   1.08753   1.09435
 Alpha virt. eigenvalues --    1.09986   1.10373   1.10702   1.11614   1.11870
 Alpha virt. eigenvalues --    1.12387   1.12603   1.13509   1.14863   1.14977
 Alpha virt. eigenvalues --    1.16286   1.17470   1.17600   1.18322   1.18964
 Alpha virt. eigenvalues --    1.19571   1.19972   1.20377   1.21217   1.21772
 Alpha virt. eigenvalues --    1.22254   1.23307   1.24312   1.24684   1.25644
 Alpha virt. eigenvalues --    1.26514   1.26732   1.27606   1.28220   1.29432
 Alpha virt. eigenvalues --    1.30150   1.30943   1.31124   1.31490   1.32926
 Alpha virt. eigenvalues --    1.34670   1.36164   1.37571   1.38303   1.39963
 Alpha virt. eigenvalues --    1.40542   1.40844   1.42351   1.44213   1.45208
 Alpha virt. eigenvalues --    1.45593   1.45800   1.46119   1.46929   1.47145
 Alpha virt. eigenvalues --    1.47876   1.49152   1.50770   1.51730   1.52072
 Alpha virt. eigenvalues --    1.52917   1.53764   1.54703   1.57157   1.58284
 Alpha virt. eigenvalues --    1.59183   1.59678   1.60133   1.60773   1.61146
 Alpha virt. eigenvalues --    1.61434   1.62128   1.62203   1.63359   1.63716
 Alpha virt. eigenvalues --    1.63814   1.64262   1.64922   1.65166   1.66525
 Alpha virt. eigenvalues --    1.67052   1.67510   1.67800   1.67936   1.68007
 Alpha virt. eigenvalues --    1.68513   1.68535   1.68924   1.69015   1.69263
 Alpha virt. eigenvalues --    1.70292   1.71034   1.71398   1.71520   1.71776
 Alpha virt. eigenvalues --    1.72009   1.72308   1.72454   1.73222   1.73843
 Alpha virt. eigenvalues --    1.74524   1.75131   1.75681   1.76190   1.76415
 Alpha virt. eigenvalues --    1.76884   1.77369   1.80220   1.80683   1.81139
 Alpha virt. eigenvalues --    1.82001   1.83325   1.83473   1.84459   1.85417
 Alpha virt. eigenvalues --    1.86229   1.86843   1.87102   1.87268   1.87731
 Alpha virt. eigenvalues --    1.87858   1.88692   1.89832   1.90070   1.90187
 Alpha virt. eigenvalues --    1.91565   1.92042   1.92131   1.95143   1.95158
 Alpha virt. eigenvalues --    1.96180   1.97148   1.97527   1.98148   1.98807
 Alpha virt. eigenvalues --    1.99230   1.99489   1.99780   1.99889   2.00171
 Alpha virt. eigenvalues --    2.00699   2.00931   2.02602   2.02668   2.03934
 Alpha virt. eigenvalues --    2.05683   2.06887   2.07547   2.08285   2.09048
 Alpha virt. eigenvalues --    2.11669   2.12734   2.13479   2.14963   2.15204
 Alpha virt. eigenvalues --    2.15840   2.16089   2.16417   2.16598   2.17255
 Alpha virt. eigenvalues --    2.18538   2.18945   2.19509   2.20025   2.20607
 Alpha virt. eigenvalues --    2.21172   2.21458   2.22922   2.23713   2.24239
 Alpha virt. eigenvalues --    2.24534   2.26005   2.28241   2.31814   2.33983
 Alpha virt. eigenvalues --    2.34766   2.35330   2.35506   2.36051   2.36609
 Alpha virt. eigenvalues --    2.37349   2.39485   2.40835   2.41213   2.42101
 Alpha virt. eigenvalues --    2.42386   2.44072   2.44495   2.45102   2.46393
 Alpha virt. eigenvalues --    2.48684   2.49136   2.49507   2.49812   2.50424
 Alpha virt. eigenvalues --    2.51421   2.52284   2.52955   2.54416   2.56796
 Alpha virt. eigenvalues --    2.57594   2.58342   2.59263   2.60568   2.61098
 Alpha virt. eigenvalues --    2.62298   2.62673   2.63399   2.63586   2.64857
 Alpha virt. eigenvalues --    2.65306   2.65652   2.65882   2.66025   2.67350
 Alpha virt. eigenvalues --    2.69769   2.70880   2.71426   2.72952   2.73384
 Alpha virt. eigenvalues --    2.73920   2.74587   2.75016   2.76454   2.77666
 Alpha virt. eigenvalues --    2.78001   2.79096   2.80690   2.80987   2.81284
 Alpha virt. eigenvalues --    2.81381   2.81618   2.84609   2.85447   2.87337
 Alpha virt. eigenvalues --    2.87581   2.88861   2.91311   2.92184   2.93803
 Alpha virt. eigenvalues --    2.94469   2.94938   2.96037   2.96565   2.99905
 Alpha virt. eigenvalues --    3.00319   3.01382   3.02204   3.04421   3.06137
 Alpha virt. eigenvalues --    3.10781   3.12424   3.20780   3.25605   3.27544
 Alpha virt. eigenvalues --    3.33083   3.35546   3.42309   3.51029   3.52317
 Alpha virt. eigenvalues --    3.52943   3.54990   3.56467   3.58737  57.08240
 Alpha virt. eigenvalues --  359.57615
          Condensed to atoms (all electrons):
 Mulliken charges:
               1
     1  Ir   0.465852
     2  H   -0.090911
     3  N   -0.242754
     4  C    0.087769
     5  H    0.058514
     6  C    0.001898
     7  N   -0.041341
     8  C    0.000917
     9  C   -0.008141
    10  H   -0.013089
    11  C    0.028975
    12  H    0.004539
    13  C    0.002603
    14  H    0.006014
    15  C   -0.015201
    16  H    0.032418
    17  C    0.137261
    18  C    0.055947
    19  C   -0.007957
    20  H   -0.000356
    21  C    0.012359
    22  H   -0.000429
    23  C    0.017678
    24  H    0.000407
    25  C    0.005689
    26  H   -0.003277
    27  C   -0.023948
    28  H   -0.007662
    29  O   -0.308008
    30  C    0.111361
    31  C   -0.102266
    32  H   -0.019495
    33  C    0.108073
    34  O   -0.276725
    35  C    0.014786
    36  H    0.028060
    37  H    0.048174
    38  H    0.059612
    39  C    0.016886
    40  H    0.054136
    41  H    0.025659
    42  H    0.057310
    43  O   -0.311707
    44  C    0.105351
    45  C   -0.105507
    46  H   -0.021973
    47  C    0.085113
    48  O   -0.314008
    49  C    0.013088
    50  H    0.025502
    51  H    0.056078
    52  H    0.050541
    53  C    0.013719
    54  H    0.050337
    55  H    0.023698
    56  H    0.048433
 Sum of Mulliken charges =  -0.00000
 Mulliken charges with hydrogens summed into heavy atoms:
               1
     1  Ir   0.374941
     3  N   -0.242754
     4  C    0.146283
     6  C    0.001898
     7  N   -0.041341
     8  C    0.000917
     9  C   -0.021230
    11  C    0.033515
    13  C    0.008617
    15  C    0.017217
    17  C    0.137261
    18  C    0.055947
    19  C   -0.008313
    21  C    0.011930
    23  C    0.018085
    25  C    0.002413
    27  C   -0.031611
    29  O   -0.308008
    30  C    0.111361
    31  C   -0.121762
    33  C    0.108073
    34  O   -0.276725
    35  C    0.150632
    39  C    0.153991
    43  O   -0.311707
    44  C    0.105351
    45  C   -0.127480
    47  C    0.085113
    48  O   -0.314008
    49  C    0.145209
    53  C    0.136186
 APT charges:
               1
     1  Ir   0.471203
     2  H   -0.116477
     3  N    0.470064
     4  C   -0.326216
     5  H    0.101514
     6  C    0.646526
     7  N   -0.499785
     8  C    0.182486
     9  C   -0.023376
    10  H    0.049827
    11  C    0.027682
    12  H    0.027269
    13  C   -0.103627
    14  H    0.031614
    15  C   -0.040645
    16  H    0.103357
    17  C   -0.126731
    18  C   -0.096499
    19  C   -0.054846
    20  H    0.097784
    21  C   -0.025016
    22  H    0.017626
    23  C   -0.050902
    24  H    0.025368
    25  C   -0.045240
    26  H    0.025279
    27  C   -0.040599
    28  H    0.043429
    29  O   -0.578535
    30  C    0.778019
    31  C   -0.536317
    32  H    0.019685
    33  C    0.832795
    34  O   -0.705457
    35  C   -0.077813
    36  H   -0.002451
    37  H    0.012094
    38  H    0.009678
    39  C   -0.108047
    40  H    0.010293
    41  H   -0.008460
    42  H    0.009951
    43  O   -0.646750
    44  C    0.779140
    45  C   -0.524986
    46  H    0.020859
    47  C    0.791151
    48  O   -0.686934
    49  C   -0.095517
    50  H   -0.004043
    51  H    0.014332
    52  H    0.014062
    53  C   -0.104110
    54  H    0.012638
    55  H   -0.008856
    56  H    0.012511
 Sum of APT charges =  -0.00000
 APT charges with hydrogens summed into heavy atoms:
               1
     1  Ir   0.354726
     3  N    0.470064
     4  C   -0.224702
     6  C    0.646526
     7  N   -0.499785
     8  C    0.182486
     9  C    0.026451
    11  C    0.054951
    13  C   -0.072013
    15  C    0.062713
    17  C   -0.126731
    18  C   -0.096499
    19  C    0.042938
    21  C   -0.007390
    23  C   -0.025535
    25  C   -0.019962
    27  C    0.002830
    29  O   -0.578535
    30  C    0.778019
    31  C   -0.516632
    33  C    0.832795
    34  O   -0.705457
    35  C   -0.058493
    39  C   -0.096263
    43  O   -0.646750
    44  C    0.779140
    45  C   -0.504127
    47  C    0.791151
    48  O   -0.686934
    49  C   -0.071166
    53  C   -0.087817
 Electronic spatial extent (au):  <R**2>=          13699.3782
 Charge=              0.0000 electrons
 Dipole moment (field-independent basis, Debye):
    X=              0.4072    Y=             -0.9597    Z=              1.3073  Tot=              1.6721
 Quadrupole moment (field-independent basis, Debye-Ang):
   XX=           -186.7978   YY=           -172.6377   ZZ=           -194.1557
   XY=              1.3658   XZ=              0.0558   YZ=              1.4015
 Traceless Quadrupole moment (field-independent basis, Debye-Ang):
   XX=             -2.2674   YY=             11.8927   ZZ=             -9.6253
   XY=              1.3658   XZ=              0.0558   YZ=              1.4015
 Octapole moment (field-independent basis, Debye-Ang**2):
  XXX=           -178.2150  YYY=             24.6609  ZZZ=             -9.5108  XYY=            -57.6639
  XXY=            -41.5844  XXZ=              5.1352  XZZ=            -90.8957  YZZ=             -1.8932
  YYZ=            -38.5898  XYZ=            -25.2545
 Hexadecapole moment (field-independent basis, Debye-Ang**3):
 XXXX=          -9282.0880 YYYY=          -5554.8148 ZZZZ=          -2700.4889 XXXY=            -38.2779
 XXXZ=            196.9866 YYYX=             17.2109 YYYZ=            -62.4500 ZZZX=             -5.0976
 ZZZY=             68.0083 XXYY=          -2454.7530 XXZZ=          -2227.2554 YYZZ=          -1425.0950
 XXYZ=            -32.5549 YYXZ=             24.3189 ZZXY=              2.3505
 N-N= 3.360837621906D+03 E-N=-1.004981699203D+04  KE= 1.359238124008D+03
  Exact polarizability:     470.105      -4.815     449.998       5.538     -20.728     260.117
 Approx polarizability:     990.516     -19.080     978.419      16.851     -78.393     493.948
 No NMR shielding tensors so no spin-rotation constants.
 Leave Link  601 at Tue Jul  6 05:46:52 2021, MaxMem=  3355443200 cpu:              95.3 elap:               8.5
 (Enter /cluster/software/Gaussian/g16_C.01/l701.exe)
 ... and contract with generalized density number  0.
 Compute integral second derivatives.
 R6Disp: Adding Grimme-D3(BJ) dispersion energy 2nd derivatives to the Hessian.
   1 Symmetry operations used in ECPInt.
 ECPInt:  NShTT=   35778 NPrTT=  127738 LenC2=   30546 LenP2D=   71555.
 LDataN:  DoStor=T MaxTD1=10 Len=  848
 Leave Link  701 at Tue Jul  6 05:47:05 2021, MaxMem=  3355443200 cpu:             171.8 elap:              10.0
 (Enter /cluster/software/Gaussian/g16_C.01/l702.exe)
 L702 exits ... SP integral derivatives will be done elsewhere.
 Leave Link  702 at Tue Jul  6 05:47:14 2021, MaxMem=  3355443200 cpu:               7.5 elap:               3.1
 (Enter /cluster/software/Gaussian/g16_C.01/l703.exe)
 Integral derivatives from FoFJK, PRISM(SPDF).
 Compute integral second derivatives, UseDBF=F ICtDFT=           0.
 Calling FoFJK, ICntrl=    100527 FMM=F ISym2X=0 I1Cent= 0 IOpClX= 0 NMat=1 NMatS=1 NMatT=0.
 FoFJK:  IHMeth= 1 ICntrl=  100527 DoSepK=F KAlg= 0 I1Cent=           0 FoldK=F
 IRaf=         0 NMat=       1 IRICut=       1 DoRegI=T DoRafI=F ISym2E= 0 IDoP0=0 IntGTp=1.
 FoFCou: FMM=F IPFlag=           0 FMFlag=      100000 FMFlg1=         800
         NFxFlg=           0 DoJE=F BraDBF=F KetDBF=F FulRan=T
         wScrn=  0.000000 ICntrl=    100527 IOpCl=  0 I1Cent=           0 NGrid=           0
         NMat0=    1 NMatS0=      1 NMatT0=    0 NMatD0=    1 NMtDS0=    0 NMtDT0=    0
 Symmetry not used in FoFCou.
 Defaulting to unpruned grid for atomic number  77.
 Defaulting to unpruned grid for atomic number  77.
 Defaulting to unpruned grid for atomic number  77.
 Defaulting to unpruned grid for atomic number  77.
 Defaulting to unpruned grid for atomic number  77.
 Defaulting to unpruned grid for atomic number  77.
 Defaulting to unpruned grid for atomic number  77.
 Defaulting to unpruned grid for atomic number  77.
 Defaulting to unpruned grid for atomic number  77.
 Defaulting to unpruned grid for atomic number  77.
 Defaulting to unpruned grid for atomic number  77.
 Defaulting to unpruned grid for atomic number  77.
 Defaulting to unpruned grid for atomic number  77.
 Defaulting to unpruned grid for atomic number  77.
[...]

  83. BD ( 2) C 23- C 25      1.39 -3.01  0.67  3.38    -0.02  0.32 -0.04  0.32
                                             deloc 144:  1.48 -1.38  0.45  2.07
                                             deloc 147: -0.41 -1.68  0.17  1.73
                                             deloc 127:  0.13 -0.21  0.05  0.25
                                             deloc 152:  0.10  0.03  0.01  0.10
                                             deloc  40:  0.03 -0.03  0.01  0.04
                                             deloc  53:  0.02 -0.02  0.01  0.03
                                             deloc 139:  0.02 -0.02  0.01  0.03
                                             deloc  75:  0.01  0.03 -0.00  0.03

  84. BD ( 1) C 25- H 26      0.41  1.61 -0.15  1.66     0.43  1.67 -0.16  1.73
                                             deloc 143:  0.05 -0.04  0.01  0.06
                                             deloc 149: -0.06 -0.02 -0.01  0.06
                                             deloc 154: -0.03  0.02 -0.01  0.04
                                             deloc 151:  0.04  0.00  0.01  0.04
                                             deloc 150: -0.03 -0.02 -0.00  0.03
                                             deloc 155:  0.01 -0.03  0.01  0.03
                                             deloc 656: -0.02  0.02 -0.01  0.02
                                             deloc 594:  0.02  0.01  0.00  0.02

  85. BD ( 1) C 25- C 27      0.11  0.08  0.01  0.13     0.10  0.07  0.01  0.12
                                             deloc 143:  0.03  0.07 -0.00  0.07
                                             deloc 151:  0.06  0.03  0.01  0.07
                                             deloc 150: -0.05  0.01 -0.01  0.05
                                             deloc 155: -0.04 -0.02 -0.00  0.05
                                             deloc 128:  0.01 -0.04  0.01  0.05
                                             deloc 153: -0.02 -0.04  0.00  0.04

  86. BD ( 1) C 27- H 28      1.59  0.46  0.22  1.67     1.62  0.50  0.23  1.71
                                             deloc 151: -0.05  0.04 -0.01  0.06
                                             deloc 142: -0.01 -0.05  0.01  0.06
                                             deloc 154:  0.03 -0.03  0.01  0.04
                                             deloc 143:  0.00  0.04 -0.00  0.04
                                             deloc 153: -0.03  0.01 -0.01  0.03
                                             deloc 128: -0.02 -0.02  0.00  0.03
                                             deloc 124:  0.02 -0.01  0.00  0.02
                                             deloc 506:  0.01  0.02 -0.00  0.02

  87. BD ( 1) O 29- C 30     -0.52 -0.92 -0.30  1.10    -0.55 -0.95 -0.30  1.14
                                             deloc  42:  0.01 -0.01 -0.01  0.02

  88. BD ( 1) C 30- C 31     -0.08 -0.18 -0.07  0.21    -0.03 -0.18 -0.09  0.21
                                             deloc 161: -0.03  0.05  0.03  0.06
                                             deloc 160: -0.01 -0.04 -0.02  0.05
                                             deloc 164:  0.03 -0.02 -0.02  0.04
                                             deloc 156:  0.01  0.02  0.01  0.03

  89. BD ( 2) C 30- C 31      4.52 -1.20 -2.03  5.10     2.39  0.43 -0.55  2.49
                                             deloc 163:  1.68 -1.73 -1.38  2.78
                                             deloc 158:  0.41  0.05 -0.11  0.42
                                             deloc 167: -0.05  0.05  0.02  0.07
                                             deloc 166: -0.04  0.03  0.04  0.07
                                             deloc 170:  0.05 -0.00 -0.02  0.06
                                             deloc 168:  0.05 -0.00 -0.02  0.05
                                             deloc 771:  0.04 -0.02 -0.02  0.05
                                             deloc 797:  0.02 -0.02 -0.02  0.04
                                             deloc 688: -0.01  0.02  0.02  0.03

  90. BD ( 1) C 30- C 35      0.12 -0.01 -0.06  0.13     0.08  0.11  0.01  0.13
                                             deloc 161:  0.05 -0.01 -0.02  0.05
                                             deloc 117:  0.00 -0.05 -0.02  0.05
                                             deloc  47:  0.00 -0.02 -0.01  0.02

  91. BD ( 1) C 31- H 32      0.76  1.46  0.46  1.71     0.80  1.53  0.48  1.79
                                             deloc 156: -0.09 -0.03  0.02  0.10
                                             deloc 162:  0.04 -0.07 -0.05  0.09
                                             deloc 157:  0.05 -0.00 -0.02  0.05
                                             deloc 161: -0.03  0.03  0.02  0.05
                                             deloc 772: -0.01  0.02  0.01  0.03
                                             deloc 715:  0.03  0.01 -0.00  0.03

  92. BD ( 1) C 31- C 33     -0.11 -0.16 -0.04  0.20    -0.16 -0.13 -0.02  0.20
                                             deloc 157:  0.06  0.02 -0.01  0.06
                                             deloc 160: -0.03 -0.04 -0.01  0.05
                                             deloc 159: -0.03  0.00  0.01  0.04
                                             deloc 162:  0.01  0.02  0.01  0.02

  93. BD ( 1) C 33- O 34     -0.51 -0.87 -0.40  1.08    -0.51 -0.91 -0.43  1.13
                                             deloc 186:  0.02  0.02  0.00  0.03

  94. BD ( 2) C 33- O 34     -1.19 -3.03 -0.92  3.38    -1.06 -3.12 -0.97  3.44
                                             deloc 158: -0.06  0.06  0.05  0.10
                                             deloc 122: -0.04 -0.01 -0.00  0.04

  95. BD ( 1) C 33- C 39     -0.09  0.08  0.07  0.14     0.04  0.12  0.06  0.14
                                             deloc 157: -0.04  0.02  0.02  0.05
                                             deloc 117: -0.04 -0.03 -0.00  0.05
                                             deloc  38: -0.03 -0.01  0.00  0.03

  96. BD ( 1) C 35- H 36      1.02  1.33  0.17  1.69     0.96  1.42  0.23  1.73
                                             deloc 156:  0.02 -0.06 -0.04  0.07

  97. BD ( 1) C 35- H 37     -1.27  0.34 -0.86  1.57    -1.39  0.52 -0.79  1.68
                                             deloc 158:  0.09 -0.10 -0.03  0.14
                                             deloc  43:  0.02 -0.04 -0.01  0.04
                                             deloc 163:  0.02 -0.02 -0.01  0.03
                                             deloc 167:  0.01  0.01 -0.02  0.02
                                             deloc  98: -0.02 -0.00  0.01  0.02
                                             deloc 157: -0.00 -0.01 -0.02  0.02

  98. BD ( 1) C 35- H 38     -0.31 -0.64  1.33  1.50    -0.45 -0.49  1.51  1.65
                                             deloc 158:  0.09 -0.08 -0.12  0.17
                                             deloc  43:  0.01 -0.04 -0.04  0.05
                                             deloc 163:  0.03 -0.02 -0.02  0.04
                                             deloc 166:  0.02 -0.00  0.01  0.02

  99. BD ( 1) C 39- H 40      0.08 -0.08 -1.53  1.54     0.29 -0.02 -1.63  1.66
                                             deloc 163: -0.13 -0.06  0.08  0.16
                                             deloc  89: -0.05  0.00  0.03  0.05
                                             deloc 170: -0.02  0.02 -0.00  0.03
                                             deloc 101:  0.02 -0.02 -0.01  0.02

 100. BD ( 1) C 39- H 41      0.40  1.55  0.58  1.70     0.51  1.57  0.55  1.74
                                             deloc 162: -0.07 -0.03  0.01  0.07

 101. BD ( 1) C 39- H 42      0.77 -1.08  0.73  1.51     1.04 -1.08  0.70  1.65
                                             deloc 163: -0.18 -0.01 -0.01  0.18
                                             deloc  89: -0.05  0.01  0.01  0.06
                                             deloc 168: -0.01  0.01  0.02  0.03

 102. BD ( 1) O 43- C 44     -0.04  0.25  1.07  1.10    -0.02  0.23  1.10  1.12
                                             deloc  47: -0.01  0.02  0.00  0.02

 103. BD ( 1) C 44- C 45     -0.03  0.09  0.24  0.26    -0.05  0.14  0.22  0.27
                                             deloc 176:  0.02 -0.06 -0.03  0.07
                                             deloc 175: -0.00  0.02  0.04  0.05
                                             deloc 179: -0.01  0.03 -0.00  0.03
                                             deloc 171:  0.00 -0.01 -0.02  0.03

 104. BD ( 2) C 44- C 45     -1.96  4.31 -1.65  5.02    -0.83  1.60 -1.75  2.51
                                             deloc 178: -0.95  2.45  0.41  2.66
                                             deloc 173: -0.13  0.26 -0.25  0.39
                                             deloc 182:  0.04 -0.06 -0.01  0.07
                                             deloc 181:  0.01 -0.07 -0.01  0.07
                                             deloc 185: -0.02  0.04 -0.03  0.05
                                             deloc 183: -0.02  0.04 -0.03  0.05
                                             deloc 988: -0.04  0.02 -0.00  0.05
                                             deloc ***: -0.01  0.03  0.00  0.03
                                             deloc 989:  0.02  0.02 -0.00  0.03
                                             deloc 905:  0.01 -0.02 -0.01  0.03

 105. BD ( 1) C 44- C 49     -0.05  0.11 -0.07  0.14    -0.01 -0.01 -0.15  0.15
                                             deloc 176: -0.02  0.04 -0.02  0.05
                                             deloc 117: -0.01  0.02  0.03  0.04
                                             deloc  42: -0.01  0.02  0.01  0.02
                                             deloc 175: -0.01  0.02 -0.01  0.02
                                             deloc 118: -0.01  0.02  0.01  0.02

 106. BD ( 1) C 45- H 46      0.05 -0.44 -1.67  1.72     0.04 -0.45 -1.74  1.79
                                             deloc 171:  0.03 -0.06  0.08  0.10
                                             deloc 177: -0.03  0.08  0.04  0.09
                                             deloc 172: -0.02  0.04 -0.02  0.05
                                             deloc 176:  0.02 -0.04 -0.00  0.05
                                             deloc 932: -0.01  0.01 -0.02  0.03

 107. BD ( 1) C 45- C 47     -0.01  0.01  0.20  0.20     0.02 -0.05  0.22  0.22
                                             deloc 172: -0.02  0.04 -0.05  0.07
                                             deloc 175:  0.00  0.00  0.04  0.04
                                             deloc 174:  0.01 -0.03  0.02  0.04
                                             deloc 177:  0.00 -0.00 -0.03  0.03

 108. BD ( 1) C 47- O 48     -0.16  0.26  0.98  1.02    -0.17  0.27  1.02  1.07

 109. BD ( 2) C 47- O 48     -0.18  1.19  3.01  3.24    -0.16  1.33  3.03  3.32
                                             deloc 173:  0.03 -0.09 -0.02  0.10
                                             deloc 122: -0.02 -0.01  0.02  0.03

 110. BD ( 1) C 47- C 53      0.05 -0.12 -0.07  0.14     0.01 -0.03 -0.15  0.15
                                             deloc 120:  0.01 -0.02  0.06  0.07
                                             deloc 172:  0.02 -0.05  0.00  0.05

 111. BD ( 1) C 49- H 50     -0.09 -0.03 -1.70  1.70    -0.05 -0.14 -1.73  1.74
                                             deloc 171: -0.02  0.06  0.04  0.07

 112. BD ( 1) C 49- H 51      1.45 -0.09  0.49  1.53     1.57 -0.28  0.43  1.65
                                             deloc 173: -0.09  0.12  0.03  0.15
                                             deloc  48: -0.03  0.03  0.02  0.05
                                             deloc 178: -0.02  0.03 -0.00  0.04
                                             deloc 182:  0.01  0.02 -0.01  0.02
                                             deloc 113:  0.01 -0.02  0.01  0.02

 113. BD ( 1) C 49- H 52     -0.95 -1.03  0.63  1.53    -0.89 -1.28  0.58  1.66
                                             deloc 173: -0.02  0.16  0.02  0.16
                                             deloc  48:  0.00  0.04  0.02  0.05
                                             deloc 178: -0.01  0.04 -0.00  0.04
                                             deloc 181: -0.02  0.01 -0.01  0.02

 114. BD ( 1) C 53- H 54      0.86  1.28  0.12  1.55     0.84  1.44 -0.05  1.67
                                             deloc 178: -0.00 -0.11  0.12  0.17
                                             deloc 104:  0.01 -0.04  0.02  0.05
                                             deloc 185:  0.02 -0.01 -0.00  0.03
                                             deloc 116: -0.01  0.02  0.00  0.02
                                             deloc 992: -0.01  0.01 -0.02  0.02

 115. BD ( 1) C 53- H 55      0.22 -0.78 -1.51  1.71     0.18 -0.71 -1.58  1.74
                                             deloc 177:  0.02 -0.03  0.06  0.07

 116. BD ( 1) C 53- H 56     -1.49  0.23  0.31  1.54    -1.62  0.39  0.14  1.67
                                             deloc 178:  0.10 -0.08  0.12  0.18
                                             deloc 104:  0.03 -0.04  0.02  0.05
                                             deloc 183: -0.01 -0.03 -0.00  0.03

   Residual nuclear charge    6.70  1.43  0.00  6.85     6.70  1.43  0.00  6.85
                            ----------------------------------------------------
         Net dipole moment    0.95 -0.90  1.34  1.87     6.12 -3.75  4.64  8.55
 Delocalization correction                              -5.17  2.85 -3.29  6.76
                            ----------------------------------------------------
       Total dipole moment    0.95 -0.90  1.34  1.87     0.95 -0.90  1.34  1.87


 Dipole moment analysis by molecular fragment:

                               NLMO fragment dipole        NBO fragment dipole
                             -------------------------  ------------------------
       Molecular fragment      x     y     z   Total      x     y     z   Total
 ===============================================================================
   1. HIr                    -1.53 -1.32  1.70  2.64     0.44 -1.01  1.81  2.12
                                                 deloc: -1.98 -0.31 -0.11  2.00

   2. C14H10N2               -2.88 -0.37 -0.27  2.92     0.92 -1.89  0.44  2.15
                                                 deloc: -3.80  1.52 -0.71  4.16

   3. C5H7O2                  1.97 -8.59 -5.12 10.20    -0.63 -6.30 -2.90  6.97
                                                 deloc:  2.60 -2.29 -2.22  4.12

   4. C5H7O2                 -3.31  7.96  5.04  9.98    -1.31  4.03  5.29  6.78
                                                 deloc: -2.00  3.93 -0.25  4.41

   Residual nuclear charge    6.70  1.43  0.00  6.85     6.70  1.43  0.00  6.85
                            ----------------------------------------------------
       Total dipole moment    0.95 -0.90  1.34  1.87     0.95 -0.90  1.34  1.87

 Maximum scratch memory used by NBO was 12546352 words (95.72 MB)
 Maximum scratch memory used by G16NBO was 1898472 words (14.48 MB)

 Opening RunExU unformatted file "/cluster/work/users/davidbal/huge_pack_28/Gau-61005.EUF"
 Read unf file /cluster/work/users/davidbal/huge_pack_28/Gau-61005.EUF:
 Label Gaussian matrix elements                                         IVers= 2 NLab= 2 Version=ES64L-G16RevC.01
 Title tmQMg project                                                   
 NAtoms=    56 NBasis=  1120 NBsUse=  1120 ICharg=     0 Multip=     1 NE=   232 Len12L=8 Len4L=8 IOpCl= 0 ICGU=111
 GAUSSIAN SCALARS                    NI= 1 NR= 1 NTot=       1 LenBuf=    2 NRI=1 N=    1000
 NPA CHARGES                         NI= 0 NR= 1 NTot=      56 LenBuf= 2048 NRI=1 N=      56
 Recovered energy= -1443.48193795     dipole=      0.373728250726     -0.352858558190      0.528862666656
 Leave Link  612 at Tue Jul  6 06:14:04 2021, MaxMem=  3355443200 cpu:            4191.4 elap:             221.6
 (Enter /cluster/software/Gaussian/g16_C.01/l9999.exe)
 Unable to Open any file for archive entry.
 1\1\GINC-C10-44\SP\RPBE1PBE\def2TZVP\C24H25Ir1N2O4\DAVIDBAL\06-Jul-202
 1\0\\#p pbe1pbe/def2TZVP empiricaldispersion=gd3bj geom=check guess=re
 ad scf(conver=5) pop=nbo7read\\tmQMg project\\0,1\Ir,0,-2.0728749656,-
 4.2319272598,2.3614236179\H,0,-1.7845582288,-2.7288473901,1.9548495798
 \N,0,-0.1155744091,-4.6705206215,2.4969773134\C,0,0.2712165468,-5.8478
 123878,1.9766749538\H,0,-0.5335646665,-6.4579386567,1.5521804892\C,0,1
 .6211277977,-6.2964877903,2.0097082199\N,0,2.5743920755,-5.5706359243,
 2.5943827858\C,0,2.2161635422,-4.3757729703,3.1345399252\C,0,3.2188041
 004,-3.5805095945,3.7632549331\H,0,4.2401581733,-3.9868037468,3.779385
 5787\C,0,2.9003893436,-2.3503278391,4.317024205\H,0,3.6822037269,-1.74
 31081045,4.7978302047\C,0,1.5677099232,-1.8661795482,4.2590854911\H,0,
 1.3243234181,-0.8848300376,4.6931593581\C,0,0.5616424403,-2.6121965035
 ,3.6558580852\H,0,-0.4721216229,-2.2491489033,3.6126628141\C,0,0.86303
 39905,-3.8772827988,3.0913332785\C,0,1.9999186592,-7.6022034949,1.4091
 284278\C,0,3.2994747453,-8.1090417446,1.6348576699\H,0,3.9847639019,-7
 .5073471552,2.2485142605\C,0,3.6916628439,-9.336708045,1.0904117942\H,
 0,4.7067331059,-9.7184457442,1.2790496138\C,0,2.7947383058,-10.0818261
 073,0.3060195568\H,0,3.102966628,-11.0476234913,-0.1225032289\C,0,1.50
 34874306,-9.5850312484,0.0684285217\H,0,0.7971912011,-10.1574496251,-0
 .5517702103\C,0,1.1074149659,-8.3564191413,0.6139846454\H,0,0.09697116
 11,-7.9799616301,0.399184169\O,0,-1.9521543907,-4.8069448773,0.4222867
 554\C,0,-2.9788865644,-4.9052446127,-0.3508433467\C,0,-4.3113644986,-4
 .5881871794,-0.0097997671\H,0,-5.0623135239,-4.7283145357,-0.798731187
 6\C,0,-4.7873162241,-4.1128716206,1.2344118929\O,0,-4.0757025327,-3.87
 8032594,2.2792127248\C,0,-2.651057796,-5.4029008601,-1.7386484706\H,0,
 -3.5534634033,-5.5484881795,-2.3592701937\H,0,-2.0957411184,-6.3604244
 233,-1.6693007776\H,0,-1.9778481723,-4.6795043968,-2.2433180394\C,0,-6
 .2604592284,-3.8329115257,1.4167213705\H,0,-6.6462872002,-4.4318533395
 ,2.2666984004\H,0,-6.8517480564,-4.0598693754,0.5114059853\H,0,-6.4028
 37708,-2.7669517529,1.6883369135\O,0,-2.1843359302,-3.6761857027,4.314
 6710813\C,0,-2.4166042313,-4.4961075257,5.2849054242\C,0,-2.6347811964
 ,-5.8878256122,5.2040075316\H,0,-2.8040794345,-6.3958201918,6.16311544
 49\C,0,-2.6759177517,-6.7117617382,4.047049478\O,0,-2.5150976193,-6.32
 16180335,2.8419905847\C,0,-2.4343378629,-3.8188675171,6.6366206206\H,0
 ,-2.6454969483,-4.5217820564,7.4624685562\H,0,-3.1975568702,-3.0143016
 545,6.6352264309\H,0,-1.4546727544,-3.3293830649,6.8149665712\C,0,-2.9
 251564711,-8.1968241438,4.2168819312\H,0,-3.810780714,-8.4899649548,3.
 617084508\H,0,-3.0811809408,-8.4948110543,5.2697879072\H,0,-2.06241499
 17,-8.7595599722,3.8039256163\\Version=ES64L-G16RevC.01\State=1-A\HF=-
 1443.4819379\RMSD=4.957e-06\Dipole=0.0477912,-0.7299208,0.0938576\Quad
 rupole=0.8650511,-1.3194261,0.454375,1.4887134,5.1745771,7.2493006\PG=
 C01 [X(C24H25Ir1N2O4)]\\@
 The archive entry for this job was punched.


 WE HAVE LEARNED THAT NOTHING IS SIMPLE AND
 RATIONAL EXCEPT WHAT WE OURSELVES HAVE INVENTED;
 THAT GOD THINKS IN TERMS NEITHER OF EUCLID OR RIEMANN; THAT SCIENCE HAS "EXPLAINED" NOTHING;
 THAT THE MORE WE KNOW THE MORE FANTASTIC THE WORLD BECOMES
 AND THE PROFOUNDER THE SURROUNDING DARKNESS.
   --  ALDOUS HUXLEY
 Job cpu time:       0 days  5 hours 35 minutes 27.8 seconds.
 Elapsed time:       0 days  0 hours 17 minutes 52.2 seconds.
 File lengths (MBytes):  RWF=    651 Int=      0 D2E=      0 Chk=     82 Scr=      1
 Normal termination of Gaussian 16 at Tue Jul  6 06:14:17 2021.
