 Initial command:
 /cluster/software/Gaussian/g16_C.01/l1.exe "/cluster/work/users/davidbal/huge_pack_162/Gau-47648.inp" -scrdir="/cluster/work/users/davidbal/huge_pack_162/"
 Entering Link 1 = /cluster/software/Gaussian/g16_C.01/l1.exe PID=     53796.
  
 Copyright (c) 1988-2019, Gaussian, Inc.  All Rights Reserved.
  
 This is part of the Gaussian(R) 16 program.  It is based on
 the Gaussian(R) 09 system (copyright 2009, Gaussian, Inc.),
 the Gaussian(R) 03 system (copyright 2003, Gaussian, Inc.),
 the Gaussian(R) 98 system (copyright 1998, Gaussian, Inc.),
 the Gaussian(R) 94 system (copyright 1995, Gaussian, Inc.),
 the Gaussian 92(TM) system (copyright 1992, Gaussian, Inc.),
 the Gaussian 90(TM) system (copyright 1990, Gaussian, Inc.),
 the Gaussian 88(TM) system (copyright 1988, Gaussian, Inc.),
 the Gaussian 86(TM) system (copyright 1986, Carnegie Mellon
 University), and the Gaussian 82(TM) system (copyright 1983,
 Carnegie Mellon University). Gaussian is a federally registered
 trademark of Gaussian, Inc.
  
 This software contains proprietary and confidential information,
 including trade secrets, belonging to Gaussian, Inc.
  
 This software is provided under written license and may be
 used, copied, transmitted, or stored only in accord with that
 written license.
  
 The following legend is applicable only to US Government
 contracts under FAR:
  
                    RESTRICTED RIGHTS LEGEND
  
 Use, reproduction and disclosure by the US Government is
 subject to restrictions as set forth in subparagraphs (a)
 and (c) of the Commercial Computer Software - Restricted
 Rights clause in FAR 52.227-19.
  
 Gaussian, Inc.
 340 Quinnipiac St., Bldg. 40, Wallingford CT 06492
  
  
 ---------------------------------------------------------------
 Warning -- This program may not be used in any manner that
 competes with the business of Gaussian, Inc. or will provide
 assistance to any competitor of Gaussian, Inc.  The licensee
 of this program is prohibited from giving any competitor of
 Gaussian, Inc. access to this program.  By using this program,
 the user acknowledges that Gaussian, Inc. is engaged in the
 business of creating and licensing software in the field of
 computational chemistry and represents and warrants to the
 licensee that it is not a competitor of Gaussian, Inc. and that
 it will not use this program in any manner prohibited above.
 ---------------------------------------------------------------
  

 Cite this work as:
 Gaussian 16, Revision C.01,
 M. J. Frisch, G. W. Trucks, H. B. Schlegel, G. E. Scuseria, 
 M. A. Robb, J. R. Cheeseman, G. Scalmani, V. Barone, 
 G. A. Petersson, H. Nakatsuji, X. Li, M. Caricato, A. V. Marenich, 
 J. Bloino, B. G. Janesko, R. Gomperts, B. Mennucci, H. P. Hratchian, 
 J. V. Ortiz, A. F. Izmaylov, J. L. Sonnenberg, D. Williams-Young, 
 F. Ding, F. Lipparini, F. Egidi, J. Goings, B. Peng, A. Petrone, 
 T. Henderson, D. Ranasinghe, V. G. Zakrzewski, J. Gao, N. Rega, 
 G. Zheng, W. Liang, M. Hada, M. Ehara, K. Toyota, R. Fukuda, 
 J. Hasegawa, M. Ishida, T. Nakajima, Y. Honda, O. Kitao, H. Nakai, 
 T. Vreven, K. Throssell, J. A. Montgomery, Jr., J. E. Peralta, 
 F. Ogliaro, M. J. Bearpark, J. J. Heyd, E. N. Brothers, K. N. Kudin, 
 V. N. Staroverov, T. A. Keith, R. Kobayashi, J. Normand, 
 K. Raghavachari, A. P. Rendell, J. C. Burant, S. S. Iyengar, 
 J. Tomasi, M. Cossi, J. M. Millam, M. Klene, C. Adamo, R. Cammi, 
 J. W. Ochterski, R. L. Martin, K. Morokuma, O. Farkas, 
 J. B. Foresman, and D. J. Fox, Gaussian, Inc., Wallingford CT, 2019.
 
 ******************************************
 Gaussian 16:  ES64L-G16RevC.01  3-Jul-2019
                 1-Jul-2021 
 ******************************************
 %NProcShared=20
 Will use up to   20 processors via shared memory.
 %LindaWorkers=c2-27-ib
 %mem=25GB
 %chk=ZUYHEG.chk
 SetLPE:    new flags="-opt 'Tsnet.Node.lindarsharg: ssh'  -nodelist 'c2-27-ib' -env GAUSS_MDEF=3355443200 -env GAUSS_EXEDIR="/cluster/software/Gaussian/g16_C.01/bsd:/cluster/software/Gaussian/g16_C.01""
 Will use up to    1 processors via Linda.
 ----------------------------------------------------------------------
 #p pbepbe/def2SVP empiricaldispersion=gd3bj geom=check guess=read freq
 ----------------------------------------------------------------------
 1/10=4,29=2,30=1,38=1/1,3;
 2/12=2,40=1/2;
 3/5=43,7=101,11=2,14=-4,25=1,30=1,71=2,74=1009,116=-2,124=41,140=1/1,2,3;
 4/5=1/1;
 5/5=2,38=6,98=1/2;
 8/6=4,10=90,11=11/1;
 11/6=1,8=1,9=11,15=111,16=1/1,2,10;
 10/6=1/2;
 6/7=2,8=2,9=2,10=2,28=1/1;
 7/8=1,10=1,25=1/1,2,3,16;
 1/10=4,30=1/3;
 99//99;
 Leave Link    1 at Thu Jul  1 06:52:35 2021, MaxMem=  3355443200 cpu:              30.1 elap:               1.6
 (Enter /cluster/software/Gaussian/g16_C.01/l101.exe)
 -------------
 tmQMg project
 -------------
 Structure from the checkpoint file:  "ZUYHEG.chk"
 Charge =  0 Multiplicity = 1
 Redundant internal coordinates found in file.  (old form).
 Ru,0,0.549581439,3.9997406887,4.7252142184
 C,0,0.7780640551,3.5123174924,2.4929030522
 C,0,1.1510629176,2.2678929906,3.4228511157
 B,0,-0.1669355703,1.9530688188,4.5518226788
 B,0,-1.5029825249,3.1369131112,4.1216575668
 B,0,-0.7676217145,4.1733529184,2.8362293131
 B,0,0.7769838579,1.9196532909,1.8091621955
 B,0,0.1684136912,0.9165175065,3.148406727
 B,0,-1.5099344011,1.4460276634,3.5322552697
 B,0,-1.8907984871,2.8265091627,2.4301360803
 B,0,-0.4614033286,3.1174566535,1.4136403769
 B,0,-0.9334693464,1.4369806852,1.8444795255
 C,0,-0.3572680864,5.3503549061,5.6283032076
 O,0,-0.9709926638,6.1769011505,6.1681444366
 C,0,2.1418750559,5.0454270178,4.7487994798
 O,0,3.1215918205,5.6635236521,4.6541374071
 C,0,0.2018610113,2.2145964096,6.0282020128
 C,0,1.4827488267,2.6599503996,6.4288359193
 C,0,1.8420518766,3.0922312267,7.8487397134
 C,0,0.6412139001,3.637761208,8.6366067981
 C,0,2.9606477296,4.1493658297,7.8204457394
 C,0,2.3756905818,1.8141649664,8.5463071915
 H,0,1.6039678738,4.1184286067,2.0990092615
 H,0,2.2073438383,2.0704429763,3.6501968406
 H,0,-2.3673742458,3.4539706561,4.9068573694
 H,0,-1.0139063536,5.318379757,2.5432363783
 H,0,1.6786688511,1.5924098609,1.0813333806
 H,0,0.6560189184,-0.1740968512,3.3207643982
 H,0,-2.3259120502,0.6413275286,3.9183552405
 H,0,-3.0074712568,3.0334793221,2.0158372551
 H,0,-0.451769353,3.5994889356,0.3082690754
 H,0,-1.3397068839,0.6626165537,1.0111841838
 H,0,-0.6270946367,2.3109748317,6.7490690393
 H,0,2.3588686345,2.2937572123,5.8627937888
 H,0,-0.1498502191,2.8745263351,8.7769331297
 H,0,0.1890071456,4.516639405,8.1365003509
 H,0,0.9679810292,3.9576865572,9.6460920281
 H,0,3.3531403265,4.3246749706,8.8424335902
 H,0,2.5843732469,5.1160148005,7.4324310865
 H,0,3.8094454882,3.8294302139,7.181877486
 H,0,2.6738155131,2.0457995495,9.5892278796
 H,0,3.2639726011,1.4064058171,8.0220755327
 H,0,1.6018008919,1.0210352126,8.5758426793
 Recover connectivity data from disk.
 ITRead=  0  0  0  0  0  0  0  0  0  0  0  0  0  0  0  0  0  0  0  0
 ITRead=  0  0  0  0  0  0  0  0  0  0  0  0  0  0  0  0  0  0  0  0
 ITRead=  0  0  0
 MicOpt= -1 -1 -1 -1 -1 -1 -1 -1 -1 -1 -1 -1 -1 -1 -1 -1 -1 -1 -1 -1
 MicOpt= -1 -1 -1 -1 -1 -1 -1 -1 -1 -1 -1 -1 -1 -1 -1 -1 -1 -1 -1 -1
 MicOpt= -1 -1 -1
 NAtoms=     43 NQM=       43 NQMF=       0 NMMI=      0 NMMIF=      0
                NMic=       0 NMicF=      0.
                    Isotopes and Nuclear Properties:
 (Nuclear quadrupole moments (NQMom) in fm**2, nuclear magnetic moments (NMagM)
  in nuclear magnetons)

  Atom         1           2           3           4           5           6           7           8           9          10
 IAtWgt=         102          12          12          11          11          11          11          11          11          11
 AtmWgt= 101.9037000  12.0000000  12.0000000  11.0093053  11.0093053  11.0093053  11.0093053  11.0093053  11.0093053  11.0093053
 NucSpn=           0           0           0           3           3           3           3           3           3           3
 AtZEff= 221.7600000   3.6000000   3.6000000   2.7500000   2.7500000   2.7500000   2.7500000   2.7500000   2.7500000   2.7500000
 NQMom=    0.0000000   0.0000000   0.0000000   4.0590000   4.0590000   4.0590000   4.0590000   4.0590000   4.0590000   4.0590000
 NMagM=    0.0000000   0.0000000   0.0000000   2.6886370   2.6886370   2.6886370   2.6886370   2.6886370   2.6886370   2.6886370
 AtZNuc=  44.0000000   6.0000000   6.0000000   5.0000000   5.0000000   5.0000000   5.0000000   5.0000000   5.0000000   5.0000000

  Atom        11          12          13          14          15          16          17          18          19          20
 IAtWgt=          11          11          12          16          12          16          12          12          12          12
 AtmWgt=  11.0093053  11.0093053  12.0000000  15.9949146  12.0000000  15.9949146  12.0000000  12.0000000  12.0000000  12.0000000
 NucSpn=           3           3           0           0           0           0           0           0           0           0
 AtZEff=   2.7500000   2.7500000   3.6000000   5.6000000   3.6000000   5.6000000   3.6000000   3.6000000   3.6000000   3.6000000
 NQMom=    4.0590000   4.0590000   0.0000000   0.0000000   0.0000000   0.0000000   0.0000000   0.0000000   0.0000000   0.0000000
 NMagM=    2.6886370   2.6886370   0.0000000   0.0000000   0.0000000   0.0000000   0.0000000   0.0000000   0.0000000   0.0000000
 AtZNuc=   5.0000000   5.0000000   6.0000000   8.0000000   6.0000000   8.0000000   6.0000000   6.0000000   6.0000000   6.0000000

  Atom        21          22          23          24          25          26          27          28          29          30
 IAtWgt=          12          12           1           1           1           1           1           1           1           1
 AtmWgt=  12.0000000  12.0000000   1.0078250   1.0078250   1.0078250   1.0078250   1.0078250   1.0078250   1.0078250   1.0078250
 NucSpn=           0           0           1           1           1           1           1           1           1           1
 AtZEff=   3.6000000   3.6000000   1.0000000   1.0000000   1.0000000   1.0000000   1.0000000   1.0000000   1.0000000   1.0000000
 NQMom=    0.0000000   0.0000000   0.0000000   0.0000000   0.0000000   0.0000000   0.0000000   0.0000000   0.0000000   0.0000000
 NMagM=    0.0000000   0.0000000   2.7928460   2.7928460   2.7928460   2.7928460   2.7928460   2.7928460   2.7928460   2.7928460
 AtZNuc=   6.0000000   6.0000000   1.0000000   1.0000000   1.0000000   1.0000000   1.0000000   1.0000000   1.0000000   1.0000000

  Atom        31          32          33          34          35          36          37          38          39          40
 IAtWgt=           1           1           1           1           1           1           1           1           1           1
 AtmWgt=   1.0078250   1.0078250   1.0078250   1.0078250   1.0078250   1.0078250   1.0078250   1.0078250   1.0078250   1.0078250
 NucSpn=           1           1           1           1           1           1           1           1           1           1
 AtZEff=   1.0000000   1.0000000   1.0000000   1.0000000   1.0000000   1.0000000   1.0000000   1.0000000   1.0000000   1.0000000
 NQMom=    0.0000000   0.0000000   0.0000000   0.0000000   0.0000000   0.0000000   0.0000000   0.0000000   0.0000000   0.0000000
 NMagM=    2.7928460   2.7928460   2.7928460   2.7928460   2.7928460   2.7928460   2.7928460   2.7928460   2.7928460   2.7928460
 AtZNuc=   1.0000000   1.0000000   1.0000000   1.0000000   1.0000000   1.0000000   1.0000000   1.0000000   1.0000000   1.0000000

  Atom        41          42          43
 IAtWgt=           1           1           1
 AtmWgt=   1.0078250   1.0078250   1.0078250
 NucSpn=           1           1           1
 AtZEff=   1.0000000   1.0000000   1.0000000
 NQMom=    0.0000000   0.0000000   0.0000000
 NMagM=    2.7928460   2.7928460   2.7928460
 AtZNuc=   1.0000000   1.0000000   1.0000000
 Leave Link  101 at Thu Jul  1 06:52:37 2021, MaxMem=  3355443200 cpu:               7.4 elap:               0.4
 (Enter /cluster/software/Gaussian/g16_C.01/l103.exe)

 GradGradGradGradGradGradGradGradGradGradGradGradGradGradGradGradGradGrad
 Berny optimization.
 Initialization pass.
                           ----------------------------
                           !    Initial Parameters    !
                           ! (Angstroms and Degrees)  !
 --------------------------                            --------------------------
 ! Name  Definition              Value          Derivative Info.                !
 --------------------------------------------------------------------------------
 ! R1    R(1,2)                  2.2963         calculate D2E/DX2 analytically  !
 ! R2    R(1,3)                  2.2488         calculate D2E/DX2 analytically  !
 ! R3    R(1,4)                  2.1754         calculate D2E/DX2 analytically  !
 ! R4    R(1,5)                  2.3069         calculate D2E/DX2 analytically  !
 ! R5    R(1,6)                  2.3094         calculate D2E/DX2 analytically  !
 ! R6    R(1,13)                 1.8607         calculate D2E/DX2 analytically  !
 ! R7    R(1,15)                 1.9051         calculate D2E/DX2 analytically  !
 ! R8    R(1,17)                 2.2373         calculate D2E/DX2 analytically  !
 ! R9    R(1,18)                 2.3597         calculate D2E/DX2 analytically  !
 ! R10   R(2,3)                  1.5977         calculate D2E/DX2 analytically  !
 ! R11   R(2,6)                  1.7158         calculate D2E/DX2 analytically  !
 ! R12   R(2,7)                  1.7332         calculate D2E/DX2 analytically  !
 ! R13   R(2,11)                 1.6903         calculate D2E/DX2 analytically  !
 ! R14   R(2,23)                 1.0976         calculate D2E/DX2 analytically  !
 ! R15   R(3,4)                  1.7637         calculate D2E/DX2 analytically  !
 ! R16   R(3,7)                  1.6927         calculate D2E/DX2 analytically  !
 ! R17   R(3,8)                  1.6933         calculate D2E/DX2 analytically  !
 ! R18   R(3,24)                 1.0984         calculate D2E/DX2 analytically  !
 ! R19   R(4,5)                  1.8362         calculate D2E/DX2 analytically  !
 ! R20   R(4,8)                  1.7766         calculate D2E/DX2 analytically  !
 ! R21   R(4,9)                  1.7608         calculate D2E/DX2 analytically  !
 ! R22   R(4,17)                 1.5441         calculate D2E/DX2 analytically  !
 ! R23   R(5,6)                  1.8076         calculate D2E/DX2 analytically  !
 ! R24   R(5,9)                  1.7907         calculate D2E/DX2 analytically  !
 ! R25   R(5,10)                 1.763          calculate D2E/DX2 analytically  !
 ! R26   R(5,25)                 1.2101         calculate D2E/DX2 analytically  !
 ! R27   R(6,10)                 1.8001         calculate D2E/DX2 analytically  !
 ! R28   R(6,11)                 1.7979         calculate D2E/DX2 analytically  !
 ! R29   R(6,26)                 1.2073         calculate D2E/DX2 analytically  !
 ! R30   R(7,8)                  1.7805         calculate D2E/DX2 analytically  !
 ! R31   R(7,11)                 1.7677         calculate D2E/DX2 analytically  !
 ! R32   R(7,12)                 1.7776         calculate D2E/DX2 analytically  !
 ! R33   R(7,27)                 1.2041         calculate D2E/DX2 analytically  !
 ! R34   R(8,9)                  1.8013         calculate D2E/DX2 analytically  !
 ! R35   R(8,12)                 1.7847         calculate D2E/DX2 analytically  !
 ! R36   R(8,28)                 1.207          calculate D2E/DX2 analytically  !
 ! R37   R(9,10)                 1.8071         calculate D2E/DX2 analytically  !
 ! R38   R(9,12)                 1.7835         calculate D2E/DX2 analytically  !
 ! R39   R(9,29)                 1.2093         calculate D2E/DX2 analytically  !
 ! R40   R(10,11)                1.7779         calculate D2E/DX2 analytically  !
 ! R41   R(10,12)                1.7861         calculate D2E/DX2 analytically  !
 ! R42   R(10,30)                1.2089         calculate D2E/DX2 analytically  !
 ! R43   R(11,12)                1.7979         calculate D2E/DX2 analytically  !
 ! R44   R(11,31)                1.2059         calculate D2E/DX2 analytically  !
 ! R45   R(12,32)                1.2079         calculate D2E/DX2 analytically  !
 ! R46   R(13,14)                1.1624         calculate D2E/DX2 analytically  !
 ! R47   R(15,16)                1.1623         calculate D2E/DX2 analytically  !
 ! R48   R(17,18)                1.414          calculate D2E/DX2 analytically  !
 ! R49   R(17,33)                1.1028         calculate D2E/DX2 analytically  !
 ! R50   R(18,19)                1.5271         calculate D2E/DX2 analytically  !
 ! R51   R(18,34)                1.1055         calculate D2E/DX2 analytically  !
 ! R52   R(19,20)                1.5363         calculate D2E/DX2 analytically  !
 ! R53   R(19,21)                1.5393         calculate D2E/DX2 analytically  !
 ! R54   R(19,22)                1.5507         calculate D2E/DX2 analytically  !
 ! R55   R(20,35)                1.1082         calculate D2E/DX2 analytically  !
 ! R56   R(20,36)                1.1077         calculate D2E/DX2 analytically  !
 ! R57   R(20,37)                1.1082         calculate D2E/DX2 analytically  !
 ! R58   R(21,38)                1.1087         calculate D2E/DX2 analytically  !
 ! R59   R(21,39)                1.1075         calculate D2E/DX2 analytically  !
 ! R60   R(21,40)                1.1093         calculate D2E/DX2 analytically  !
 ! R61   R(22,41)                1.1092         calculate D2E/DX2 analytically  !
 ! R62   R(22,42)                1.1091         calculate D2E/DX2 analytically  !
 ! R63   R(22,43)                1.1085         calculate D2E/DX2 analytically  !
 ! A1    A(2,1,4)               75.8526         calculate D2E/DX2 analytically  !
 ! A2    A(2,1,5)               75.8063         calculate D2E/DX2 analytically  !
 ! A3    A(2,1,13)             132.4078         calculate D2E/DX2 analytically  !
 ! A4    A(2,1,15)              92.6011         calculate D2E/DX2 analytically  !
 ! A5    A(2,1,17)             114.3472         calculate D2E/DX2 analytically  !
 ! A6    A(2,1,18)             122.8185         calculate D2E/DX2 analytically  !
 ! A7    A(3,1,5)               78.3707         calculate D2E/DX2 analytically  !
 ! A8    A(3,1,6)               74.7368         calculate D2E/DX2 analytically  !
 ! A9    A(3,1,15)             101.9071         calculate D2E/DX2 analytically  !
 ! A10   A(3,1,17)              76.3716         calculate D2E/DX2 analytically  !
 ! A11   A(3,1,18)              82.8242         calculate D2E/DX2 analytically  !
 ! A12   A(4,1,6)               79.4945         calculate D2E/DX2 analytically  !
 ! A13   A(4,1,13)             124.1305         calculate D2E/DX2 analytically  !
 ! A14   A(4,1,15)             142.4374         calculate D2E/DX2 analytically  !
 ! A15   A(4,1,18)              69.7336         calculate D2E/DX2 analytically  !
 ! A16   A(5,1,13)              87.9846         calculate D2E/DX2 analytically  !
 ! A17   A(5,1,15)             162.2119         calculate D2E/DX2 analytically  !
 ! A18   A(5,1,17)              73.4802         calculate D2E/DX2 analytically  !
 ! A19   A(5,1,18)             109.171          calculate D2E/DX2 analytically  !
 ! A20   A(6,1,13)              93.6951         calculate D2E/DX2 analytically  !
 ! A21   A(6,1,15)             116.46           calculate D2E/DX2 analytically  !
 ! A22   A(6,1,17)             116.5967         calculate D2E/DX2 analytically  !
 ! A23   A(6,1,18)             149.1786         calculate D2E/DX2 analytically  !
 ! A24   A(13,1,15)             90.1673         calculate D2E/DX2 analytically  !
 ! A25   A(13,1,17)            102.7538         calculate D2E/DX2 analytically  !
 ! A26   A(13,1,18)            104.7419         calculate D2E/DX2 analytically  !
 ! A27   A(15,1,17)            124.101          calculate D2E/DX2 analytically  !
 ! A28   A(15,1,18)             88.4059         calculate D2E/DX2 analytically  !
 ! A29   A(1,2,7)              125.344          calculate D2E/DX2 analytically  !
 ! A30   A(1,2,11)             126.6801         calculate D2E/DX2 analytically  !
 ! A31   A(1,2,23)             107.8504         calculate D2E/DX2 analytically  !
 ! A32   A(3,2,6)              113.1993         calculate D2E/DX2 analytically  !
 ! A33   A(3,2,11)             111.1555         calculate D2E/DX2 analytically  !
 ! A34   A(3,2,23)             117.6035         calculate D2E/DX2 analytically  !
 ! A35   A(6,2,7)              115.6195         calculate D2E/DX2 analytically  !
 ! A36   A(6,2,23)             122.4754         calculate D2E/DX2 analytically  !
 ! A37   A(7,2,23)             111.4902         calculate D2E/DX2 analytically  !
 ! A38   A(11,2,23)            116.8499         calculate D2E/DX2 analytically  !
 ! A39   A(1,3,7)              130.6494         calculate D2E/DX2 analytically  !
 ! A40   A(1,3,8)              123.5914         calculate D2E/DX2 analytically  !
 ! A41   A(1,3,24)             106.0089         calculate D2E/DX2 analytically  !
 ! A42   A(2,3,4)              109.7034         calculate D2E/DX2 analytically  !
 ! A43   A(2,3,8)              113.067          calculate D2E/DX2 analytically  !
 ! A44   A(2,3,24)             119.0139         calculate D2E/DX2 analytically  !
 ! A45   A(4,3,7)              114.1016         calculate D2E/DX2 analytically  !
 ! A46   A(4,3,24)             123.6461         calculate D2E/DX2 analytically  !
 ! A47   A(7,3,24)             111.8928         calculate D2E/DX2 analytically  !
 ! A48   A(8,3,24)             116.6265         calculate D2E/DX2 analytically  !
 ! A49   A(1,4,8)              123.3464         calculate D2E/DX2 analytically  !
 ! A50   A(1,4,9)              124.6324         calculate D2E/DX2 analytically  !
 ! A51   A(3,4,5)              106.1822         calculate D2E/DX2 analytically  !
 ! A52   A(3,4,9)              104.5205         calculate D2E/DX2 analytically  !
 ! A53   A(3,4,17)             113.7861         calculate D2E/DX2 analytically  !
 ! A54   A(5,4,8)              109.1742         calculate D2E/DX2 analytically  !
 ! A55   A(5,4,17)             106.7738         calculate D2E/DX2 analytically  !
 ! A56   A(8,4,17)             144.0021         calculate D2E/DX2 analytically  !
 ! A57   A(9,4,17)             141.6863         calculate D2E/DX2 analytically  !
 ! A58   A(1,5,9)              116.2793         calculate D2E/DX2 analytically  !
 ! A59   A(1,5,10)             120.8381         calculate D2E/DX2 analytically  !
 ! A60   A(1,5,25)             111.5808         calculate D2E/DX2 analytically  !
 ! A61   A(4,5,6)              103.9024         calculate D2E/DX2 analytically  !
 ! A62   A(4,5,10)             105.7431         calculate D2E/DX2 analytically  !
 ! A63   A(4,5,25)             122.4582         calculate D2E/DX2 analytically  !
 ! A64   A(6,5,9)              107.9956         calculate D2E/DX2 analytically  !
 ! A65   A(6,5,25)             127.0008         calculate D2E/DX2 analytically  !
 ! A66   A(9,5,25)             117.2727         calculate D2E/DX2 analytically  !
 ! A67   A(10,5,25)            120.7702         calculate D2E/DX2 analytically  !
 ! A68   A(1,6,10)             118.9568         calculate D2E/DX2 analytically  !
 ! A69   A(1,6,11)             120.3916         calculate D2E/DX2 analytically  !
 ! A70   A(1,6,26)             112.7152         calculate D2E/DX2 analytically  !
 ! A71   A(2,6,5)              106.731          calculate D2E/DX2 analytically  !
 ! A72   A(2,6,10)             103.22           calculate D2E/DX2 analytically  !
 ! A73   A(2,6,26)             120.0396         calculate D2E/DX2 analytically  !
 ! A74   A(5,6,11)             107.1713         calculate D2E/DX2 analytically  !
 ! A75   A(5,6,26)             129.3016         calculate D2E/DX2 analytically  !
 ! A76   A(10,6,26)            121.8415         calculate D2E/DX2 analytically  !
 ! A77   A(11,6,26)            113.5607         calculate D2E/DX2 analytically  !
 ! A78   A(2,7,8)              102.7793         calculate D2E/DX2 analytically  !
 ! A79   A(2,7,12)             104.0206         calculate D2E/DX2 analytically  !
 ! A80   A(2,7,27)             119.1908         calculate D2E/DX2 analytically  !
 ! A81   A(3,7,11)             103.222          calculate D2E/DX2 analytically  !
 ! A82   A(3,7,12)             104.4521         calculate D2E/DX2 analytically  !
 ! A83   A(3,7,27)             117.8182         calculate D2E/DX2 analytically  !
 ! A84   A(8,7,11)             108.0959         calculate D2E/DX2 analytically  !
 ! A85   A(8,7,27)             123.8824         calculate D2E/DX2 analytically  !
 ! A86   A(11,7,27)            124.9962         calculate D2E/DX2 analytically  !
 ! A87   A(12,7,27)            131.2063         calculate D2E/DX2 analytically  !
 ! A88   A(3,8,9)              105.7581         calculate D2E/DX2 analytically  !
 ! A89   A(3,8,12)             104.1209         calculate D2E/DX2 analytically  !
 ! A90   A(3,8,28)             117.6156         calculate D2E/DX2 analytically  !
 ! A91   A(4,8,7)              109.2668         calculate D2E/DX2 analytically  !
 ! A92   A(4,8,12)             106.8846         calculate D2E/DX2 analytically  !
 ! A93   A(4,8,28)             119.3812         calculate D2E/DX2 analytically  !
 ! A94   A(7,8,9)              108.2484         calculate D2E/DX2 analytically  !
 ! A95   A(7,8,28)             118.5805         calculate D2E/DX2 analytically  !
 ! A96   A(9,8,28)             127.7046         calculate D2E/DX2 analytically  !
 ! A97   A(12,8,28)            128.1144         calculate D2E/DX2 analytically  !
 ! A98   A(4,9,10)             107.0934         calculate D2E/DX2 analytically  !
 ! A99   A(4,9,12)             107.6315         calculate D2E/DX2 analytically  !
 ! A100  A(4,9,29)             121.4262         calculate D2E/DX2 analytically  !
 ! A101  A(5,9,8)              110.1273         calculate D2E/DX2 analytically  !
 ! A102  A(5,9,12)             108.3616         calculate D2E/DX2 analytically  !
 ! A103  A(5,9,29)             121.7266         calculate D2E/DX2 analytically  !
 ! A104  A(8,9,10)             106.9169         calculate D2E/DX2 analytically  !
 ! A105  A(8,9,29)             120.0745         calculate D2E/DX2 analytically  !
 ! A106  A(10,9,29)            124.1147         calculate D2E/DX2 analytically  !
 ! A107  A(12,9,29)            121.1208         calculate D2E/DX2 analytically  !
 ! A108  A(5,10,11)            110.0532         calculate D2E/DX2 analytically  !
 ! A109  A(5,10,12)            109.492          calculate D2E/DX2 analytically  !
 ! A110  A(5,10,30)            120.1242         calculate D2E/DX2 analytically  !
 ! A111  A(6,10,9)             107.6068         calculate D2E/DX2 analytically  !
 ! A112  A(6,10,12)            108.7604         calculate D2E/DX2 analytically  !
 ! A113  A(6,10,30)            121.7061         calculate D2E/DX2 analytically  !
 ! A114  A(9,10,11)            107.7137         calculate D2E/DX2 analytically  !
 ! A115  A(9,10,30)            122.3095         calculate D2E/DX2 analytically  !
 ! A116  A(11,10,30)           121.2434         calculate D2E/DX2 analytically  !
 ! A117  A(12,10,30)           121.0582         calculate D2E/DX2 analytically  !
 ! A118  A(2,11,10)            105.2311         calculate D2E/DX2 analytically  !
 ! A119  A(2,11,12)            104.9442         calculate D2E/DX2 analytically  !
 ! A120  A(2,11,31)            119.0801         calculate D2E/DX2 analytically  !
 ! A121  A(6,11,7)             109.891          calculate D2E/DX2 analytically  !
 ! A122  A(6,11,12)            108.3369         calculate D2E/DX2 analytically  !
 ! A123  A(6,11,31)            119.4638         calculate D2E/DX2 analytically  !
 ! A124  A(7,11,10)            108.9302         calculate D2E/DX2 analytically  !
 ! A125  A(7,11,31)            118.0565         calculate D2E/DX2 analytically  !
 ! A126  A(10,11,31)           126.5753         calculate D2E/DX2 analytically  !
 ! A127  A(12,11,31)           126.5379         calculate D2E/DX2 analytically  !
 ! A128  A(7,12,9)             109.1735         calculate D2E/DX2 analytically  !
 ! A129  A(7,12,10)            108.1201         calculate D2E/DX2 analytically  !
 ! A130  A(7,12,32)            118.9454         calculate D2E/DX2 analytically  !
 ! A131  A(8,12,10)            108.5553         calculate D2E/DX2 analytically  !
 ! A132  A(8,12,11)            106.5914         calculate D2E/DX2 analytically  !
 ! A133  A(8,12,32)            121.6484         calculate D2E/DX2 analytically  !
 ! A134  A(9,12,11)            107.872          calculate D2E/DX2 analytically  !
 ! A135  A(9,12,32)            123.1872         calculate D2E/DX2 analytically  !
 ! A136  A(10,12,32)           123.0023         calculate D2E/DX2 analytically  !
 ! A137  A(11,12,32)           121.4795         calculate D2E/DX2 analytically  !
 ! A138  A(1,17,33)            115.3281         calculate D2E/DX2 analytically  !
 ! A139  A(4,17,18)            122.7252         calculate D2E/DX2 analytically  !
 ! A140  A(4,17,33)            117.4062         calculate D2E/DX2 analytically  !
 ! A141  A(18,17,33)           117.9166         calculate D2E/DX2 analytically  !
 ! A142  A(1,18,19)            127.1283         calculate D2E/DX2 analytically  !
 ! A143  A(1,18,34)             97.5748         calculate D2E/DX2 analytically  !
 ! A144  A(17,18,19)           124.4518         calculate D2E/DX2 analytically  !
 ! A145  A(17,18,34)           117.9366         calculate D2E/DX2 analytically  !
 ! A146  A(19,18,34)           112.5435         calculate D2E/DX2 analytically  !
 ! A147  A(18,19,20)           113.168          calculate D2E/DX2 analytically  !
 ! A148  A(18,19,21)           110.382          calculate D2E/DX2 analytically  !
 ! A149  A(18,19,22)           105.4213         calculate D2E/DX2 analytically  !
 ! A150  A(20,19,21)           109.4847         calculate D2E/DX2 analytically  !
 ! A151  A(20,19,22)           109.3255         calculate D2E/DX2 analytically  !
 ! A152  A(21,19,22)           108.9168         calculate D2E/DX2 analytically  !
 ! A153  A(19,20,35)           112.2311         calculate D2E/DX2 analytically  !
 ! A154  A(19,20,36)           111.6717         calculate D2E/DX2 analytically  !
 ! A155  A(19,20,37)           109.8261         calculate D2E/DX2 analytically  !
 ! A156  A(35,20,36)           108.1926         calculate D2E/DX2 analytically  !
 ! A157  A(35,20,37)           107.0954         calculate D2E/DX2 analytically  !
 ! A158  A(36,20,37)           107.6122         calculate D2E/DX2 analytically  !
 ! A159  A(19,21,38)           110.4195         calculate D2E/DX2 analytically  !
 ! A160  A(19,21,39)           111.0361         calculate D2E/DX2 analytically  !
 ! A161  A(19,21,40)           111.6251         calculate D2E/DX2 analytically  !
 ! A162  A(38,21,39)           107.7709         calculate D2E/DX2 analytically  !
 ! A163  A(38,21,40)           107.779          calculate D2E/DX2 analytically  !
 ! A164  A(39,21,40)           108.0601         calculate D2E/DX2 analytically  !
 ! A165  A(19,22,41)           110.0806         calculate D2E/DX2 analytically  !
 ! A166  A(19,22,42)           111.4682         calculate D2E/DX2 analytically  !
 ! A167  A(19,22,43)           111.1874         calculate D2E/DX2 analytically  !
 ! A168  A(41,22,42)           107.815          calculate D2E/DX2 analytically  !
 ! A169  A(41,22,43)           108.1807         calculate D2E/DX2 analytically  !
 ! A170  A(42,22,43)           107.9794         calculate D2E/DX2 analytically  !
 ! A171  L(3,1,13,5,-1)        166.3553         calculate D2E/DX2 analytically  !
 ! A172  L(1,13,14,20,-1)      181.2476         calculate D2E/DX2 analytically  !
 ! A173  L(1,15,16,21,-1)      184.636          calculate D2E/DX2 analytically  !
 ! A174  L(3,1,13,5,-2)        182.9907         calculate D2E/DX2 analytically  !
 ! A175  L(1,13,14,20,-2)      182.4617         calculate D2E/DX2 analytically  !
 ! A176  L(1,15,16,21,-2)      177.073          calculate D2E/DX2 analytically  !
 ! D1    D(4,1,2,7)            -17.3938         calculate D2E/DX2 analytically  !
 ! D2    D(4,1,2,11)            61.9067         calculate D2E/DX2 analytically  !
 ! D3    D(4,1,2,23)          -151.8383         calculate D2E/DX2 analytically  !
 ! D4    D(5,1,2,7)            -67.2657         calculate D2E/DX2 analytically  !
 ! D5    D(5,1,2,11)            12.0348         calculate D2E/DX2 analytically  !
 ! D6    D(5,1,2,23)           158.2898         calculate D2E/DX2 analytically  !
 ! D7    D(13,1,2,7)          -140.997          calculate D2E/DX2 analytically  !
 ! D8    D(13,1,2,11)          -61.6965         calculate D2E/DX2 analytically  !
 ! D9    D(13,1,2,23)           84.5585         calculate D2E/DX2 analytically  !
 ! D10   D(15,1,2,7)           126.3979         calculate D2E/DX2 analytically  !
 ! D11   D(15,1,2,11)         -154.3016         calculate D2E/DX2 analytically  !
 ! D12   D(15,1,2,23)           -8.0466         calculate D2E/DX2 analytically  !
 ! D13   D(17,1,2,7)            -3.139          calculate D2E/DX2 analytically  !
 ! D14   D(17,1,2,11)           76.1615         calculate D2E/DX2 analytically  !
 ! D15   D(17,1,2,23)         -137.5835         calculate D2E/DX2 analytically  !
 ! D16   D(18,1,2,7)            36.6178         calculate D2E/DX2 analytically  !
 ! D17   D(18,1,2,11)          115.9183         calculate D2E/DX2 analytically  !
 ! D18   D(18,1,2,23)          -97.8267         calculate D2E/DX2 analytically  !
 ! D19   D(5,1,3,7)             58.1921         calculate D2E/DX2 analytically  !
 ! D20   D(5,1,3,8)            -23.9372         calculate D2E/DX2 analytically  !
 ! D21   D(5,1,3,24)          -162.5525         calculate D2E/DX2 analytically  !
 ! D22   D(6,1,3,7)             10.8499         calculate D2E/DX2 analytically  !
 ! D23   D(6,1,3,8)            -71.2795         calculate D2E/DX2 analytically  !
 ! D24   D(6,1,3,24)           150.1052         calculate D2E/DX2 analytically  !
 ! D25   D(15,1,3,7)          -103.6368         calculate D2E/DX2 analytically  !
 ! D26   D(15,1,3,8)           174.2339         calculate D2E/DX2 analytically  !
 ! D27   D(15,1,3,24)           35.6185         calculate D2E/DX2 analytically  !
 ! D28   D(17,1,3,7)           133.7845         calculate D2E/DX2 analytically  !
 ! D29   D(17,1,3,8)            51.6552         calculate D2E/DX2 analytically  !
 ! D30   D(17,1,3,24)          -86.9602         calculate D2E/DX2 analytically  !
 ! D31   D(18,1,3,7)           169.5277         calculate D2E/DX2 analytically  !
 ! D32   D(18,1,3,8)            87.3983         calculate D2E/DX2 analytically  !
 ! D33   D(18,1,3,24)          -51.217          calculate D2E/DX2 analytically  !
 ! D34   D(2,1,4,8)             16.6216         calculate D2E/DX2 analytically  !
 ! D35   D(2,1,4,9)            -59.141          calculate D2E/DX2 analytically  !
 ! D36   D(6,1,4,8)             61.3051         calculate D2E/DX2 analytically  !
 ! D37   D(6,1,4,9)            -14.4575         calculate D2E/DX2 analytically  !
 ! D38   D(13,1,4,8)           148.6393         calculate D2E/DX2 analytically  !
 ! D39   D(13,1,4,9)            72.8766         calculate D2E/DX2 analytically  !
 ! D40   D(15,1,4,8)           -58.8427         calculate D2E/DX2 analytically  !
 ! D41   D(15,1,4,9)          -134.6054         calculate D2E/DX2 analytically  !
 ! D42   D(18,1,4,8)          -116.9207         calculate D2E/DX2 analytically  !
 ! D43   D(18,1,4,9)           167.3167         calculate D2E/DX2 analytically  !
 ! D44   D(2,1,5,9)             61.7485         calculate D2E/DX2 analytically  !
 ! D45   D(2,1,5,10)            -8.8322         calculate D2E/DX2 analytically  !
 ! D46   D(2,1,5,25)          -160.1027         calculate D2E/DX2 analytically  !
 ! D47   D(3,1,5,9)             19.5663         calculate D2E/DX2 analytically  !
 ! D48   D(3,1,5,10)           -51.0145         calculate D2E/DX2 analytically  !
 ! D49   D(3,1,5,25)           157.7151         calculate D2E/DX2 analytically  !
 ! D50   D(13,1,5,9)          -163.4244         calculate D2E/DX2 analytically  !
 ! D51   D(13,1,5,10)          125.9949         calculate D2E/DX2 analytically  !
 ! D52   D(13,1,5,25)          -25.2756         calculate D2E/DX2 analytically  !
 ! D53   D(15,1,5,9)           112.3214         calculate D2E/DX2 analytically  !
 ! D54   D(15,1,5,10)           41.7407         calculate D2E/DX2 analytically  !
 ! D55   D(15,1,5,25)         -109.5297         calculate D2E/DX2 analytically  !
 ! D56   D(17,1,5,9)           -59.4879         calculate D2E/DX2 analytically  !
 ! D57   D(17,1,5,10)         -130.0686         calculate D2E/DX2 analytically  !
 ! D58   D(17,1,5,25)           78.6609         calculate D2E/DX2 analytically  !
 ! D59   D(18,1,5,9)           -58.5122         calculate D2E/DX2 analytically  !
 ! D60   D(18,1,5,10)         -129.0929         calculate D2E/DX2 analytically  !
 ! D61   D(18,1,5,25)           79.6366         calculate D2E/DX2 analytically  !
 ! D62   D(3,1,6,10)            60.7461         calculate D2E/DX2 analytically  !
 ! D63   D(3,1,6,11)            -8.5603         calculate D2E/DX2 analytically  !
 ! D64   D(3,1,6,26)          -146.9675         calculate D2E/DX2 analytically  !
 ! D65   D(4,1,6,10)            12.7381         calculate D2E/DX2 analytically  !
 ! D66   D(4,1,6,11)           -56.5683         calculate D2E/DX2 analytically  !
 ! D67   D(4,1,6,26)           165.0245         calculate D2E/DX2 analytically  !
 ! D68   D(13,1,6,10)         -111.3079         calculate D2E/DX2 analytically  !
 ! D69   D(13,1,6,11)          179.3857         calculate D2E/DX2 analytically  !
 ! D70   D(13,1,6,26)           40.9785         calculate D2E/DX2 analytically  !
 ! D71   D(15,1,6,10)          156.6627         calculate D2E/DX2 analytically  !
 ! D72   D(15,1,6,11)           87.3563         calculate D2E/DX2 analytically  !
 ! D73   D(15,1,6,26)          -51.0509         calculate D2E/DX2 analytically  !
 ! D74   D(17,1,6,10)           -5.0634         calculate D2E/DX2 analytically  !
 ! D75   D(17,1,6,11)          -74.3698         calculate D2E/DX2 analytically  !
 ! D76   D(17,1,6,26)          147.223          calculate D2E/DX2 analytically  !
 ! D77   D(18,1,6,10)           15.9878         calculate D2E/DX2 analytically  !
 ! D78   D(18,1,6,11)          -53.3186         calculate D2E/DX2 analytically  !
 ! D79   D(18,1,6,26)          168.2742         calculate D2E/DX2 analytically  !
 ! D80   D(2,1,17,33)         -132.1339         calculate D2E/DX2 analytically  !
 ! D81   D(3,1,17,33)         -148.3442         calculate D2E/DX2 analytically  !
 ! D82   D(5,1,17,33)          -66.6492         calculate D2E/DX2 analytically  !
 ! D83   D(6,1,17,33)          -83.4524         calculate D2E/DX2 analytically  !
 ! D84   D(13,1,17,33)          17.3385         calculate D2E/DX2 analytically  !
 ! D85   D(15,1,17,33)         116.3638         calculate D2E/DX2 analytically  !
 ! D86   D(2,1,18,19)          156.2775         calculate D2E/DX2 analytically  !
 ! D87   D(2,1,18,34)           30.4199         calculate D2E/DX2 analytically  !
 ! D88   D(3,1,18,19)          166.4227         calculate D2E/DX2 analytically  !
 ! D89   D(3,1,18,34)           40.5651         calculate D2E/DX2 analytically  !
 ! D90   D(4,1,18,19)         -146.9635         calculate D2E/DX2 analytically  !
 ! D91   D(4,1,18,34)           87.179          calculate D2E/DX2 analytically  !
 ! D92   D(5,1,18,19)         -118.5804         calculate D2E/DX2 analytically  !
 ! D93   D(5,1,18,34)          115.562          calculate D2E/DX2 analytically  !
 ! D94   D(6,1,18,19)         -150.3697         calculate D2E/DX2 analytically  !
 ! D95   D(6,1,18,34)           83.7727         calculate D2E/DX2 analytically  !
 ! D96   D(13,1,18,19)         -25.5434         calculate D2E/DX2 analytically  !
 ! D97   D(13,1,18,34)        -151.401          calculate D2E/DX2 analytically  !
 ! D98   D(15,1,18,19)          64.2101         calculate D2E/DX2 analytically  !
 ! D99   D(15,1,18,34)         -61.6475         calculate D2E/DX2 analytically  !
 ! D100  D(6,2,3,4)             -0.3702         calculate D2E/DX2 analytically  !
 ! D101  D(6,2,3,8)             66.4981         calculate D2E/DX2 analytically  !
 ! D102  D(6,2,3,24)          -151.015          calculate D2E/DX2 analytically  !
 ! D103  D(11,2,3,4)           -69.8373         calculate D2E/DX2 analytically  !
 ! D104  D(11,2,3,8)            -2.969          calculate D2E/DX2 analytically  !
 ! D105  D(11,2,3,24)          139.5179         calculate D2E/DX2 analytically  !
 ! D106  D(23,2,3,4)           151.6729         calculate D2E/DX2 analytically  !
 ! D107  D(23,2,3,8)          -141.4588         calculate D2E/DX2 analytically  !
 ! D108  D(23,2,3,24)            1.0281         calculate D2E/DX2 analytically  !
 ! D109  D(3,2,6,5)             -3.0645         calculate D2E/DX2 analytically  !
 ! D110  D(3,2,6,10)           -63.7408         calculate D2E/DX2 analytically  !
 ! D111  D(3,2,6,26)           156.6303         calculate D2E/DX2 analytically  !
 ! D112  D(7,2,6,5)             64.5493         calculate D2E/DX2 analytically  !
 ! D113  D(7,2,6,10)             3.8731         calculate D2E/DX2 analytically  !
 ! D114  D(7,2,6,26)          -135.7559         calculate D2E/DX2 analytically  !
 ! D115  D(23,2,6,5)          -153.5625         calculate D2E/DX2 analytically  !
 ! D116  D(23,2,6,10)          145.7613         calculate D2E/DX2 analytically  !
 ! D117  D(23,2,6,26)            6.1323         calculate D2E/DX2 analytically  !
 ! D118  D(1,2,7,8)             13.4758         calculate D2E/DX2 analytically  !
 ! D119  D(1,2,7,12)            75.5433         calculate D2E/DX2 analytically  !
 ! D120  D(1,2,7,27)          -127.9246         calculate D2E/DX2 analytically  !
 ! D121  D(6,2,7,8)            -67.4656         calculate D2E/DX2 analytically  !
 ! D122  D(6,2,7,12)            -5.3981         calculate D2E/DX2 analytically  !
 ! D123  D(6,2,7,27)           151.134          calculate D2E/DX2 analytically  !
 ! D124  D(23,2,7,8)           146.5615         calculate D2E/DX2 analytically  !
 ! D125  D(23,2,7,12)         -151.371          calculate D2E/DX2 analytically  !
 ! D126  D(23,2,7,27)            5.161          calculate D2E/DX2 analytically  !
 ! D127  D(1,2,11,10)          -11.6091         calculate D2E/DX2 analytically  !
 ! D128  D(1,2,11,12)          -73.912          calculate D2E/DX2 analytically  !
 ! D129  D(1,2,11,31)          137.4921         calculate D2E/DX2 analytically  !
 ! D130  D(3,2,11,10)           65.9051         calculate D2E/DX2 analytically  !
 ! D131  D(3,2,11,12)            3.6022         calculate D2E/DX2 analytically  !
 ! D132  D(3,2,11,31)         -144.9937         calculate D2E/DX2 analytically  !
 ! D133  D(23,2,11,10)        -155.264          calculate D2E/DX2 analytically  !
 ! D134  D(23,2,11,12)         142.4331         calculate D2E/DX2 analytically  !
 ! D135  D(23,2,11,31)          -6.1628         calculate D2E/DX2 analytically  !
 ! D136  D(2,3,4,5)              3.5836         calculate D2E/DX2 analytically  !
 ! D137  D(2,3,4,9)             65.6787         calculate D2E/DX2 analytically  !
 ! D138  D(2,3,4,17)          -113.5649         calculate D2E/DX2 analytically  !
 ! D139  D(7,3,4,5)            -65.3735         calculate D2E/DX2 analytically  !
 ! D140  D(7,3,4,9)             -3.2783         calculate D2E/DX2 analytically  !
 ! D141  D(7,3,4,17)           177.478          calculate D2E/DX2 analytically  !
 ! D142  D(24,3,4,5)           152.5881         calculate D2E/DX2 analytically  !
 ! D143  D(24,3,4,9)          -145.3168         calculate D2E/DX2 analytically  !
 ! D144  D(24,3,4,17)           35.4396         calculate D2E/DX2 analytically  !
 ! D145  D(1,3,7,11)            -9.4266         calculate D2E/DX2 analytically  !
 ! D146  D(1,3,7,12)           -72.3849         calculate D2E/DX2 analytically  !
 ! D147  D(1,3,7,27)           132.7675         calculate D2E/DX2 analytically  !
 ! D148  D(4,3,7,11)            66.6124         calculate D2E/DX2 analytically  !
 ! D149  D(4,3,7,12)             3.654          calculate D2E/DX2 analytically  !
 ! D150  D(4,3,7,27)          -151.1935         calculate D2E/DX2 analytically  !
 ! D151  D(24,3,7,11)         -146.8839         calculate D2E/DX2 analytically  !
 ! D152  D(24,3,7,12)          150.1577         calculate D2E/DX2 analytically  !
 ! D153  D(24,3,7,27)           -4.6898         calculate D2E/DX2 analytically  !
 ! D154  D(1,3,8,9)             20.8368         calculate D2E/DX2 analytically  !
 ! D155  D(1,3,8,12)            82.7764         calculate D2E/DX2 analytically  !
 ! D156  D(1,3,8,28)          -129.0225         calculate D2E/DX2 analytically  !
 ! D157  D(2,3,8,9)            -61.0305         calculate D2E/DX2 analytically  !
 ! D158  D(2,3,8,12)             0.9091         calculate D2E/DX2 analytically  !
 ! D159  D(2,3,8,28)           149.1101         calculate D2E/DX2 analytically  !
 ! D160  D(24,3,8,9)           155.5318         calculate D2E/DX2 analytically  !
 ! D161  D(24,3,8,12)         -142.5286         calculate D2E/DX2 analytically  !
 ! D162  D(24,3,8,28)            5.6725         calculate D2E/DX2 analytically  !
 ! D163  D(3,4,5,6)             -5.1287         calculate D2E/DX2 analytically  !
 ! D164  D(3,4,5,10)            57.6975         calculate D2E/DX2 analytically  !
 ! D165  D(3,4,5,25)          -158.2803         calculate D2E/DX2 analytically  !
 ! D166  D(8,4,5,6)            -65.3143         calculate D2E/DX2 analytically  !
 ! D167  D(8,4,5,10)            -2.4881         calculate D2E/DX2 analytically  !
 ! D168  D(8,4,5,25)           141.534          calculate D2E/DX2 analytically  !
 ! D169  D(17,4,5,6)           116.6132         calculate D2E/DX2 analytically  !
 ! D170  D(17,4,5,10)          179.4394         calculate D2E/DX2 analytically  !
 ! D171  D(17,4,5,25)          -36.5384         calculate D2E/DX2 analytically  !
 ! D172  D(1,4,8,7)            -14.3208         calculate D2E/DX2 analytically  !
 ! D173  D(1,4,8,12)           -77.5423         calculate D2E/DX2 analytically  !
 ! D174  D(1,4,8,28)           126.7924         calculate D2E/DX2 analytically  !
 ! D175  D(5,4,8,7)             63.4074         calculate D2E/DX2 analytically  !
 ! D176  D(5,4,8,12)             0.1859         calculate D2E/DX2 analytically  !
 ! D177  D(5,4,8,28)          -155.4794         calculate D2E/DX2 analytically  !
 ! D178  D(17,4,8,7)          -119.7336         calculate D2E/DX2 analytically  !
 ! D179  D(17,4,8,12)          177.045          calculate D2E/DX2 analytically  !
 ! D180  D(17,4,8,28)           21.3797         calculate D2E/DX2 analytically  !
 ! D181  D(1,4,9,10)            12.5264         calculate D2E/DX2 analytically  !
 ! D182  D(1,4,9,12)            75.3446         calculate D2E/DX2 analytically  !
 ! D183  D(1,4,9,29)          -138.5826         calculate D2E/DX2 analytically  !
 ! D184  D(3,4,9,10)           -61.3985         calculate D2E/DX2 analytically  !
 ! D185  D(3,4,9,12)             1.4196         calculate D2E/DX2 analytically  !
 ! D186  D(3,4,9,29)           147.4925         calculate D2E/DX2 analytically  !
 ! D187  D(17,4,9,10)          117.4851         calculate D2E/DX2 analytically  !
 ! D188  D(17,4,9,12)         -179.6967         calculate D2E/DX2 analytically  !
 ! D189  D(17,4,9,29)          -33.6239         calculate D2E/DX2 analytically  !
 ! D190  D(3,4,17,18)           -0.2532         calculate D2E/DX2 analytically  !
 ! D191  D(3,4,17,33)          163.4991         calculate D2E/DX2 analytically  !
 ! D192  D(5,4,17,18)         -117.0579         calculate D2E/DX2 analytically  !
 ! D193  D(5,4,17,33)           46.6944         calculate D2E/DX2 analytically  !
 ! D194  D(8,4,17,18)           66.0405         calculate D2E/DX2 analytically  !
 ! D195  D(8,4,17,33)         -130.2071         calculate D2E/DX2 analytically  !
 ! D196  D(9,4,17,18)         -179.0722         calculate D2E/DX2 analytically  !
 ! D197  D(9,4,17,33)          -15.3198         calculate D2E/DX2 analytically  !
 ! D198  D(4,5,6,2)              4.9375         calculate D2E/DX2 analytically  !
 ! D199  D(4,5,6,11)            65.2594         calculate D2E/DX2 analytically  !
 ! D200  D(4,5,6,26)          -152.2191         calculate D2E/DX2 analytically  !
 ! D201  D(9,5,6,2)            -55.5609         calculate D2E/DX2 analytically  !
 ! D202  D(9,5,6,11)             4.7609         calculate D2E/DX2 analytically  !
 ! D203  D(9,5,6,26)           147.2825         calculate D2E/DX2 analytically  !
 ! D204  D(25,5,6,2)           156.437          calculate D2E/DX2 analytically  !
 ! D205  D(25,5,6,11)         -143.2411         calculate D2E/DX2 analytically  !
 ! D206  D(25,5,6,26)           -0.7196         calculate D2E/DX2 analytically  !
 ! D207  D(1,5,9,8)            -14.3333         calculate D2E/DX2 analytically  !
 ! D208  D(1,5,9,12)           -77.956          calculate D2E/DX2 analytically  !
 ! D209  D(1,5,9,29)           134.3238         calculate D2E/DX2 analytically  !
 ! D210  D(6,5,9,8)             58.367          calculate D2E/DX2 analytically  !
 ! D211  D(6,5,9,12)            -5.2558         calculate D2E/DX2 analytically  !
 ! D212  D(6,5,9,29)          -152.9759         calculate D2E/DX2 analytically  !
 ! D213  D(25,5,9,8)          -150.0647         calculate D2E/DX2 analytically  !
 ! D214  D(25,5,9,12)          146.3126         calculate D2E/DX2 analytically  !
 ! D215  D(25,5,9,29)           -1.4076         calculate D2E/DX2 analytically  !
 ! D216  D(1,5,10,11)            5.5974         calculate D2E/DX2 analytically  !
 ! D217  D(1,5,10,12)           70.4256         calculate D2E/DX2 analytically  !
 ! D218  D(1,5,10,30)         -142.6327         calculate D2E/DX2 analytically  !
 ! D219  D(4,5,10,11)          -60.9829         calculate D2E/DX2 analytically  !
 ! D220  D(4,5,10,12)            3.8454         calculate D2E/DX2 analytically  !
 ! D221  D(4,5,10,30)          150.7871         calculate D2E/DX2 analytically  !
 ! D222  D(25,5,10,11)         154.2508         calculate D2E/DX2 analytically  !
 ! D223  D(25,5,10,12)        -140.9209         calculate D2E/DX2 analytically  !
 ! D224  D(25,5,10,30)           6.0208         calculate D2E/DX2 analytically  !
 ! D225  D(1,6,10,9)            -9.3342         calculate D2E/DX2 analytically  !
 ! D226  D(1,6,10,12)          -72.3142         calculate D2E/DX2 analytically  !
 ! D227  D(1,6,10,30)          139.4454         calculate D2E/DX2 analytically  !
 ! D228  D(2,6,10,9)            62.3002         calculate D2E/DX2 analytically  !
 ! D229  D(2,6,10,12)           -0.6798         calculate D2E/DX2 analytically  !
 ! D230  D(2,6,10,30)         -148.9202         calculate D2E/DX2 analytically  !
 ! D231  D(26,6,10,9)         -159.0045         calculate D2E/DX2 analytically  !
 ! D232  D(26,6,10,12)         138.0155         calculate D2E/DX2 analytically  !
 ! D233  D(26,6,10,30)         -10.2249         calculate D2E/DX2 analytically  !
 ! D234  D(1,6,11,7)             6.6605         calculate D2E/DX2 analytically  !
 ! D235  D(1,6,11,12)           70.3247         calculate D2E/DX2 analytically  !
 ! D236  D(1,6,11,31)         -134.4981         calculate D2E/DX2 analytically  !
 ! D237  D(5,6,11,7)           -66.1629         calculate D2E/DX2 analytically  !
 ! D238  D(5,6,11,12)           -2.4987         calculate D2E/DX2 analytically  !
 ! D239  D(5,6,11,31)          152.6785         calculate D2E/DX2 analytically  !
 ! D240  D(26,6,11,7)          144.7452         calculate D2E/DX2 analytically  !
 ! D241  D(26,6,11,12)        -151.5906         calculate D2E/DX2 analytically  !
 ! D242  D(26,6,11,31)           3.5865         calculate D2E/DX2 analytically  !
 ! D243  D(2,7,8,4)              0.2199         calculate D2E/DX2 analytically  !
 ! D244  D(2,7,8,9)             62.8335         calculate D2E/DX2 analytically  !
 ! D245  D(2,7,8,28)          -141.2488         calculate D2E/DX2 analytically  !
 ! D246  D(11,7,8,4)           -59.6554         calculate D2E/DX2 analytically  !
 ! D247  D(11,7,8,9)             2.9582         calculate D2E/DX2 analytically  !
 ! D248  D(11,7,8,28)          158.8759         calculate D2E/DX2 analytically  !
 ! D249  D(27,7,8,4)           139.2206         calculate D2E/DX2 analytically  !
 ! D250  D(27,7,8,9)          -158.1658         calculate D2E/DX2 analytically  !
 ! D251  D(27,7,8,28)           -2.2481         calculate D2E/DX2 analytically  !
 ! D252  D(3,7,11,6)             0.8012         calculate D2E/DX2 analytically  !
 ! D253  D(3,7,11,10)          -63.7064         calculate D2E/DX2 analytically  !
 ! D254  D(3,7,11,31)          142.5751         calculate D2E/DX2 analytically  !
 ! D255  D(8,7,11,6)            61.3783         calculate D2E/DX2 analytically  !
 ! D256  D(8,7,11,10)           -3.1294         calculate D2E/DX2 analytically  !
 ! D257  D(8,7,11,31)         -156.8479         calculate D2E/DX2 analytically  !
 ! D258  D(27,7,11,6)         -137.7609         calculate D2E/DX2 analytically  !
 ! D259  D(27,7,11,10)         157.7315         calculate D2E/DX2 analytically  !
 ! D260  D(27,7,11,31)           4.013          calculate D2E/DX2 analytically  !
 ! D261  D(2,7,12,9)           -60.0618         calculate D2E/DX2 analytically  !
 ! D262  D(2,7,12,10)            4.5187         calculate D2E/DX2 analytically  !
 ! D263  D(2,7,12,32)          151.2269         calculate D2E/DX2 analytically  !
 ! D264  D(3,7,12,9)            -2.5619         calculate D2E/DX2 analytically  !
 ! D265  D(3,7,12,10)           62.0186         calculate D2E/DX2 analytically  !
 ! D266  D(3,7,12,32)         -151.2732         calculate D2E/DX2 analytically  !
 ! D267  D(27,7,12,9)          147.4612         calculate D2E/DX2 analytically  !
 ! D268  D(27,7,12,10)        -147.9584         calculate D2E/DX2 analytically  !
 ! D269  D(27,7,12,32)          -1.2502         calculate D2E/DX2 analytically  !
 ! D270  D(3,8,9,5)             -2.6648         calculate D2E/DX2 analytically  !
 ! D271  D(3,8,9,10)            59.4837         calculate D2E/DX2 analytically  !
 ! D272  D(3,8,9,29)          -151.9172         calculate D2E/DX2 analytically  !
 ! D273  D(7,8,9,5)            -63.8138         calculate D2E/DX2 analytically  !
 ! D274  D(7,8,9,10)            -1.6652         calculate D2E/DX2 analytically  !
 ! D275  D(7,8,9,29)           146.9339         calculate D2E/DX2 analytically  !
 ! D276  D(28,8,9,5)           143.1164         calculate D2E/DX2 analytically  !
 ! D277  D(28,8,9,10)         -154.7351         calculate D2E/DX2 analytically  !
 ! D278  D(28,8,9,29)           -6.136          calculate D2E/DX2 analytically  !
 ! D279  D(3,8,12,10)          -61.3631         calculate D2E/DX2 analytically  !
 ! D280  D(3,8,12,11)            1.3178         calculate D2E/DX2 analytically  !
 ! D281  D(3,8,12,32)          146.7761         calculate D2E/DX2 analytically  !
 ! D282  D(4,8,12,10)            2.1919         calculate D2E/DX2 analytically  !
 ! D283  D(4,8,12,11)           64.8728         calculate D2E/DX2 analytically  !
 ! D284  D(4,8,12,32)         -149.6688         calculate D2E/DX2 analytically  !
 ! D285  D(28,8,12,10)         155.0387         calculate D2E/DX2 analytically  !
 ! D286  D(28,8,12,11)        -142.2804         calculate D2E/DX2 analytically  !
 ! D287  D(28,8,12,32)           3.1779         calculate D2E/DX2 analytically  !
 ! D288  D(4,9,10,6)            -1.0247         calculate D2E/DX2 analytically  !
 ! D289  D(4,9,10,11)           62.6217         calculate D2E/DX2 analytically  !
 ! D290  D(4,9,10,30)         -149.5746         calculate D2E/DX2 analytically  !
 ! D291  D(8,9,10,6)           -63.8872         calculate D2E/DX2 analytically  !
 ! D292  D(8,9,10,11)           -0.2408         calculate D2E/DX2 analytically  !
 ! D293  D(8,9,10,30)          147.5629         calculate D2E/DX2 analytically  !
 ! D294  D(29,9,10,6)          149.1099         calculate D2E/DX2 analytically  !
 ! D295  D(29,9,10,11)        -147.2437         calculate D2E/DX2 analytically  !
 ! D296  D(29,9,10,30)           0.5599         calculate D2E/DX2 analytically  !
 ! D297  D(4,9,12,7)             0.6782         calculate D2E/DX2 analytically  !
 ! D298  D(4,9,12,11)          -62.1576         calculate D2E/DX2 analytically  !
 ! D299  D(4,9,12,32)          147.7865         calculate D2E/DX2 analytically  !
 ! D300  D(5,9,12,7)            66.5279         calculate D2E/DX2 analytically  !
 ! D301  D(5,9,12,11)            3.6922         calculate D2E/DX2 analytically  !
 ! D302  D(5,9,12,32)         -146.3638         calculate D2E/DX2 analytically  !
 ! D303  D(29,9,12,7)         -145.5192         calculate D2E/DX2 analytically  !
 ! D304  D(29,9,12,11)         151.6451         calculate D2E/DX2 analytically  !
 ! D305  D(29,9,12,32)           1.5891         calculate D2E/DX2 analytically  !
 ! D306  D(5,10,11,2)            2.9578         calculate D2E/DX2 analytically  !
 ! D307  D(5,10,11,7)           66.0484         calculate D2E/DX2 analytically  !
 ! D308  D(5,10,11,31)        -143.0667         calculate D2E/DX2 analytically  !
 ! D309  D(9,10,11,2)          -61.0106         calculate D2E/DX2 analytically  !
 ! D310  D(9,10,11,7)            2.08           calculate D2E/DX2 analytically  !
 ! D311  D(9,10,11,31)         152.9649         calculate D2E/DX2 analytically  !
 ! D312  D(30,10,11,2)         150.7732         calculate D2E/DX2 analytically  !
 ! D313  D(30,10,11,7)        -146.1362         calculate D2E/DX2 analytically  !
 ! D314  D(30,10,11,31)          4.7487         calculate D2E/DX2 analytically  !
 ! D315  D(5,10,12,7)          -67.4077         calculate D2E/DX2 analytically  !
 ! D316  D(5,10,12,8)           -3.8636         calculate D2E/DX2 analytically  !
 ! D317  D(5,10,12,32)         147.5344         calculate D2E/DX2 analytically  !
 ! D318  D(6,10,12,7)           -2.4714         calculate D2E/DX2 analytically  !
 ! D319  D(6,10,12,8)           61.0727         calculate D2E/DX2 analytically  !
 ! D320  D(6,10,12,32)        -147.5293         calculate D2E/DX2 analytically  !
 ! D321  D(30,10,12,7)         146.0125         calculate D2E/DX2 analytically  !
 ! D322  D(30,10,12,8)        -150.4435         calculate D2E/DX2 analytically  !
 ! D323  D(30,10,12,32)          0.9546         calculate D2E/DX2 analytically  !
 ! D324  D(2,11,12,8)           -2.9233         calculate D2E/DX2 analytically  !
 ! D325  D(2,11,12,9)           60.876          calculate D2E/DX2 analytically  !
 ! D326  D(2,11,12,32)        -148.453          calculate D2E/DX2 analytically  !
 ! D327  D(6,11,12,8)          -64.5095         calculate D2E/DX2 analytically  !
 ! D328  D(6,11,12,9)           -0.7101         calculate D2E/DX2 analytically  !
 ! D329  D(6,11,12,32)         149.9609         calculate D2E/DX2 analytically  !
 ! D330  D(31,11,12,8)         142.5508         calculate D2E/DX2 analytically  !
 ! D331  D(31,11,12,9)        -153.6499         calculate D2E/DX2 analytically  !
 ! D332  D(31,11,12,32)         -2.9788         calculate D2E/DX2 analytically  !
 ! D333  D(4,17,18,19)         172.2336         calculate D2E/DX2 analytically  !
 ! D334  D(4,17,18,34)         -34.8853         calculate D2E/DX2 analytically  !
 ! D335  D(33,17,18,19)          8.5595         calculate D2E/DX2 analytically  !
 ! D336  D(33,17,18,34)        161.4406         calculate D2E/DX2 analytically  !
 ! D337  D(1,18,19,20)          58.9609         calculate D2E/DX2 analytically  !
 ! D338  D(1,18,19,21)         -64.135          calculate D2E/DX2 analytically  !
 ! D339  D(1,18,19,22)         178.3971         calculate D2E/DX2 analytically  !
 ! D340  D(17,18,19,20)        -27.334          calculate D2E/DX2 analytically  !
 ! D341  D(17,18,19,21)       -150.4299         calculate D2E/DX2 analytically  !
 ! D342  D(17,18,19,22)         92.1021         calculate D2E/DX2 analytically  !
 ! D343  D(34,18,19,20)        178.5173         calculate D2E/DX2 analytically  !
 ! D344  D(34,18,19,21)         55.4213         calculate D2E/DX2 analytically  !
 ! D345  D(34,18,19,22)        -62.0466         calculate D2E/DX2 analytically  !
 ! D346  D(18,19,20,35)         62.4183         calculate D2E/DX2 analytically  !
 ! D347  D(18,19,20,36)        -59.274          calculate D2E/DX2 analytically  !
 ! D348  D(18,19,20,37)       -178.5732         calculate D2E/DX2 analytically  !
 ! D349  D(21,19,20,35)       -173.9912         calculate D2E/DX2 analytically  !
 ! D350  D(21,19,20,36)         64.3165         calculate D2E/DX2 analytically  !
 ! D351  D(21,19,20,37)        -54.9827         calculate D2E/DX2 analytically  !
 ! D352  D(22,19,20,35)        -54.7488         calculate D2E/DX2 analytically  !
 ! D353  D(22,19,20,36)       -176.4411         calculate D2E/DX2 analytically  !
 ! D354  D(22,19,20,37)         64.2597         calculate D2E/DX2 analytically  !
 ! D355  D(18,19,21,38)       -169.4373         calculate D2E/DX2 analytically  !
 ! D356  D(18,19,21,39)         71.0835         calculate D2E/DX2 analytically  !
 ! D357  D(18,19,21,40)        -49.5646         calculate D2E/DX2 analytically  !
 ! D358  D(20,19,21,38)         65.3468         calculate D2E/DX2 analytically  !
 ! D359  D(20,19,21,39)        -54.1324         calculate D2E/DX2 analytically  !
 ! D360  D(20,19,21,40)       -174.7805         calculate D2E/DX2 analytically  !
 ! D361  D(22,19,21,38)        -54.1474         calculate D2E/DX2 analytically  !
 ! D362  D(22,19,21,39)       -173.6266         calculate D2E/DX2 analytically  !
 ! D363  D(22,19,21,40)         65.7254         calculate D2E/DX2 analytically  !
 ! D364  D(18,19,22,41)        179.3045         calculate D2E/DX2 analytically  !
 ! D365  D(18,19,22,42)         59.7141         calculate D2E/DX2 analytically  !
 ! D366  D(18,19,22,43)        -60.8281         calculate D2E/DX2 analytically  !
 ! D367  D(20,19,22,41)        -58.7421         calculate D2E/DX2 analytically  !
 ! D368  D(20,19,22,42)       -178.3325         calculate D2E/DX2 analytically  !
 ! D369  D(20,19,22,43)         61.1253         calculate D2E/DX2 analytically  !
 ! D370  D(21,19,22,41)         60.851          calculate D2E/DX2 analytically  !
 ! D371  D(21,19,22,42)        -58.7394         calculate D2E/DX2 analytically  !
 ! D372  D(21,19,22,43)       -179.2816         calculate D2E/DX2 analytically  !
 --------------------------------------------------------------------------------
 Trust Radius=3.00D-01 FncErr=1.00D-07 GrdErr=1.00D-07 EigMax=2.50D+02 EigMin=1.00D-04
 Number of steps in this run=      2 maximum allowed number of steps=      2.
 GradGradGradGradGradGradGradGradGradGradGradGradGradGradGradGradGradGrad

 Leave Link  103 at Thu Jul  1 06:52:37 2021, MaxMem=  3355443200 cpu:               0.4 elap:               0.1
 (Enter /cluster/software/Gaussian/g16_C.01/l202.exe)
                          Input orientation:                          
 ---------------------------------------------------------------------
 Center     Atomic      Atomic             Coordinates (Angstroms)
 Number     Number       Type             X           Y           Z
 ---------------------------------------------------------------------
      1         44           0        0.549581    3.999741    4.725214
      2          6           0        0.778064    3.512317    2.492903
      3          6           0        1.151063    2.267893    3.422851
      4          5           0       -0.166936    1.953069    4.551823
      5          5           0       -1.502983    3.136913    4.121658
      6          5           0       -0.767622    4.173353    2.836229
      7          5           0        0.776984    1.919653    1.809162
      8          5           0        0.168414    0.916518    3.148407
      9          5           0       -1.509934    1.446028    3.532255
     10          5           0       -1.890798    2.826509    2.430136
     11          5           0       -0.461403    3.117457    1.413640
     12          5           0       -0.933469    1.436981    1.844480
     13          6           0       -0.357268    5.350355    5.628303
     14          8           0       -0.970993    6.176901    6.168144
     15          6           0        2.141875    5.045427    4.748799
     16          8           0        3.121592    5.663524    4.654137
     17          6           0        0.201861    2.214596    6.028202
     18          6           0        1.482749    2.659950    6.428836
     19          6           0        1.842052    3.092231    7.848740
     20          6           0        0.641214    3.637761    8.636607
     21          6           0        2.960648    4.149366    7.820446
     22          6           0        2.375691    1.814165    8.546307
     23          1           0        1.603968    4.118429    2.099009
     24          1           0        2.207344    2.070443    3.650197
     25          1           0       -2.367374    3.453971    4.906857
     26          1           0       -1.013906    5.318380    2.543236
     27          1           0        1.678669    1.592410    1.081333
     28          1           0        0.656019   -0.174097    3.320764
     29          1           0       -2.325912    0.641328    3.918355
     30          1           0       -3.007471    3.033479    2.015837
     31          1           0       -0.451769    3.599489    0.308269
     32          1           0       -1.339707    0.662617    1.011184
     33          1           0       -0.627095    2.310975    6.749069
     34          1           0        2.358869    2.293757    5.862794
     35          1           0       -0.149850    2.874526    8.776933
     36          1           0        0.189007    4.516639    8.136500
     37          1           0        0.967981    3.957687    9.646092
     38          1           0        3.353140    4.324675    8.842434
     39          1           0        2.584373    5.116015    7.432431
     40          1           0        3.809445    3.829430    7.181877
     41          1           0        2.673816    2.045800    9.589228
     42          1           0        3.263973    1.406406    8.022076
     43          1           0        1.601801    1.021035    8.575843
 ---------------------------------------------------------------------
                    Distance matrix (angstroms):
                    1          2          3          4          5
     1  Ru   0.000000
     2  C    2.296301   0.000000
     3  C    2.248828   1.597662   0.000000
     4  B    2.175391   2.750169   1.763749   0.000000
     5  B    2.306896   2.827887   2.878799   1.836178   0.000000
     6  B    2.309422   1.715805   2.766994   2.869450   1.807564
     7  B    3.589127   1.733229   1.692690   2.900739   3.468083
     8  B    3.483945   2.745822   1.693262   1.776647   2.944646
     9  B    3.490875   3.253420   2.787174   1.760754   1.790681
    10  B    3.549551   2.756284   3.248147   2.869870   1.762951
    11  B    3.573099   1.690267   2.712699   3.360163   2.901486
    12  B    4.131079   2.767096   2.743528   2.860704   2.898216
    13  C    1.860673   3.807636   4.079296   3.568836   2.912382
    14  O    3.022287   4.864833   5.226863   4.593448   3.703059
    15  C    1.905102   3.049504   3.233349   3.864206   4.161817
    16  O    3.064060   3.845874   4.114530   4.959068   5.296601
    17  C    2.237281   3.809781   2.773387   1.544054   2.718836
    18  C    2.359696   4.088359   3.049536   2.596983   3.803309
    19  C    3.500066   5.476635   4.554722   4.025343   5.008233
    20  C    3.929175   6.146508   5.414770   4.491854   5.023265
    21  C    3.926332   5.792427   5.114037   5.028856   5.884734
    22  C    4.765728   6.486897   5.287285   4.737103   6.030862
    23  H    2.832449   1.097561   2.319949   3.720373   3.835051
    24  H    2.761526   2.336915   1.098363   2.542422   3.889236
    25  H    2.973128   3.965396   3.998557   2.687133   1.210057
    26  H    2.990707   2.544711   3.842692   4.009625   2.736678
    27  H    4.510870   2.547482   2.493462   3.947230   4.663900
    28  H    4.405080   3.780198   2.493753   2.591832   4.033051
    29  H    4.494266   4.461969   3.870477   2.604443   2.635620
    30  H    4.574605   3.845407   4.456368   3.958175   2.590109
    31  H    4.546681   2.508528   3.747378   4.560655   3.982582
    32  H    5.338523   3.847238   3.820600   3.946743   3.977920
    33  H    2.886604   4.640328   3.771926   2.273265   2.890094
    34  H    2.734591   3.916631   2.722643   2.866078   4.319301
    35  H    4.262832   6.384108   5.543156   4.324458   4.855039
    36  H    3.469016   5.762451   5.310452   4.421369   4.570059
    37  H    4.938812   7.169556   6.451174   5.590895   6.107267
    38  H    4.991695   6.899817   6.200917   6.035296   6.875931
    39  H    3.565876   5.498503   5.122783   5.086436   5.620013
    40  H    4.085451   5.592523   4.861654   5.123429   6.169799
    41  H    5.655872   7.490152   6.355494   5.783936   6.966383
    42  H    4.996259   6.417660   5.134142   4.910461   6.397795
    43  H    4.980682   6.624740   5.320821   4.493312   5.827211
                    6          7          8          9         10
     6  B    0.000000
     7  B    2.918876   0.000000
     8  B    3.403027   1.780510   0.000000
     9  B    2.910976   2.902304   1.801270   0.000000
    10  B    1.800118   2.885318   2.899023   1.807057   0.000000
    11  B    1.797900   1.767703   2.872319   2.895103   1.777944
    12  B    2.915271   1.777602   1.784728   1.783530   1.786130
    13  C    3.057679   5.257574   5.107362   4.578846   4.353135
    14  O    3.893228   6.338794   6.171604   5.442383   5.103320
    15  C    3.589375   4.502761   4.848062   5.269855   5.153858
    16  O    4.544379   5.254297   5.789866   6.363720   6.174050
    17  C    3.868503   4.268261   3.159011   3.122610   4.207106
    18  C    4.501264   4.731546   3.940590   4.338196   5.234326
    19  C    5.753649   6.243861   5.443154   5.707700   6.585290
    20  C    5.993001   7.041614   6.144025   5.956974   6.751999
    21  C    6.224386   6.773148   6.330547   6.758899   7.371697
    22  C    6.931895   6.925035   5.900438   6.354079   7.525644
    23  H    2.484139   2.366966   3.662552   4.346528   3.740601
    24  H    3.732987   2.336253   2.395949   3.771202   4.342229
    25  H    2.713710   4.672990   3.995127   2.580033   2.599035
    26  H    1.207306   3.911201   4.597880   4.027321   2.644078
    27  H    3.965509   1.204101   2.647734   4.024380   4.010407
    28  H    4.600201   2.585220   1.207023   2.713095   4.035237
    29  H    4.009298   3.963682   2.624921   1.209312   2.679392
    30  H    2.643725   3.950370   3.981267   2.657469   1.208900
    31  H    2.611449   2.566001   3.955925   4.018855   2.677802
    32  H    3.997917   2.587912   2.628044   2.645470   2.645668
    33  H    4.335725   5.150461   3.942349   3.446075   4.529449
    34  H    4.740033   4.367407   3.750037   4.595399   5.488773
    35  H    6.112328   7.093704   5.967864   5.603310   6.581416
    36  H    5.396838   6.864784   6.151616   5.789139   6.304342
    37  H    7.030865   8.099847   7.218582   7.058859   7.843609
    38  H    7.285470   7.866868   7.360704   7.754618   8.417895
    39  H    5.766242   6.715991   6.467264   6.741182   7.091682
    40  H    6.320798   6.458261   6.165311   6.877220   7.488503
    41  H    7.872291   8.008952   7.002606   7.385825   8.526301
    42  H    7.127605   6.711842   5.794404   6.553644   7.736805
    43  H    6.963794   6.875740   5.614498   5.941489   7.295731
                   11         12         13         14         15
    11  B    0.000000
    12  B    1.797907   0.000000
    13  C    4.770751   5.473922   0.000000
    14  O    5.676724   6.415788   1.162439   0.000000
    15  C    4.649453   5.560009   2.666875   3.603432   0.000000
    16  O    5.460873   6.496258   3.626229   4.393748   1.162260
    17  C    4.748606   4.404225   3.210222   4.134613   3.662530
    18  C    5.398261   5.324480   3.356306   4.296248   2.991232
    19  C    6.834987   6.818688   3.855706   4.500312   3.676207
    20  C    7.325143   7.311365   3.602754   3.890983   4.398699
    21  C    7.336377   7.631078   4.154086   4.722160   3.302775
    22  C    7.786052   7.483803   5.337457   5.990777   4.991672
    23  H    2.395294   3.700478   4.221375   5.236945   2.858331
    24  H    3.636019   3.677852   4.609551   5.771038   3.172025
    25  H    3.993561   3.937320   2.856096   3.309845   4.784459
    26  H    2.534819   3.944615   3.154336   3.725434   3.859789
    27  H    2.648793   2.725769   6.240363   7.342609   5.058478
    28  H    3.964855   2.702122   6.072154   7.147721   5.611638
    29  H    3.985123   2.621626   5.382789   6.126984   6.328258
    30  H    2.617662   2.622910   5.043947   5.591959   6.167073
    31  H    1.205941   2.696001   5.601538   6.422677   5.341913
    32  H    2.638111   1.207911   6.652658   7.558937   6.730543
    33  H    5.398580   4.991265   3.250654   3.924427   4.375557
    34  H    5.331733   5.265017   4.095751   5.124453   2.976534
    35  H    7.373884   7.123167   4.010813   4.287859   5.117683
    36  H    6.897651   7.094630   2.698991   2.824269   3.945862
    37  H    8.397761   8.416331   4.454036   4.558580   5.152153
    38  H    8.437718   8.699722   5.014956   5.411163   4.329490
    39  H    7.035398   7.558817   3.458764   3.919761   2.720784
    40  H    7.212462   7.530397   4.699820   5.421334   3.190503
    41  H    8.821467   8.565296   5.983016   6.484939   5.719307
    42  H    7.776730   7.468745   5.865003   6.643013   5.021545
    43  H    7.742670   7.204988   5.591865   6.244936   5.579755
                   16         17         18         19         20
    16  O    0.000000
    17  C    4.723133   0.000000
    18  C    3.854454   1.414044   0.000000
    19  C    4.295841   2.602850   1.527119   0.000000
    20  C    5.110387   3.003698   2.557058   1.536343   0.000000
    21  C    3.513415   3.816592   2.517761   1.539348   2.511500
    22  C    5.524755   3.350632   2.448751   1.550750   2.518346
    23  H    3.349505   4.585743   4.570476   5.845440   6.625565
    24  H    3.841090   3.114105   2.931449   4.336502   5.456513
    25  H    5.922393   3.065034   4.215487   5.148281   4.795457
    26  H    4.655897   4.822504   5.329017   6.423441   6.533993
    27  H    5.605437   5.199960   5.456538   6.933538   7.895691
    28  H    6.475704   3.639002   4.286655   5.707726   6.541304
    29  H    7.445746   3.649146   4.988311   6.231113   6.328060
    30  H    7.172390   5.202831   6.306834   7.585781   7.583709
    31  H    5.992973   5.921384   6.487406   7.897951   8.399838
    32  H    7.627802   5.473166   6.427017   7.923306   8.421556
    33  H    5.448025   1.102772   2.162353   2.813596   2.632825
    34  H    3.660317   2.164788   1.105480   2.201963   3.528558
    35  H    5.956365   2.848637   2.867923   2.208305   1.108152
    36  H    4.694917   3.121616   2.834992   2.200977   1.107711
    37  H    5.698029   4.088329   3.507113   2.177955   1.108237
    38  H    4.403176   4.722594   3.477805   2.188546   2.805131
    39  H    2.882236   4.008298   2.872809   2.195462   2.722341
    40  H    3.197892   4.117441   2.710770   2.204270   3.491513
    41  H    6.135434   4.338197   3.432768   2.194573   2.751963
    42  H    5.430132   3.742356   2.698619   2.212219   3.497922
    43  H    6.264362   3.142434   2.703674   2.208224   2.788131
                   21         22         23         24         25
    21  C    0.000000
    22  C    2.514401   0.000000
    23  H    5.880168   6.890054   0.000000
    24  H    4.720208   4.905702   2.639032   0.000000
    25  H    6.112315   6.199292   4.908877   4.941800   0.000000
    26  H    6.709144   7.733418   2.913844   4.706475   3.300697
    27  H    7.321006   7.500723   2.724338   2.665909   5.871159
    28  H    6.652126   5.849509   4.562572   2.748289   4.981914
    29  H    7.448514   6.700638   5.553756   4.760745   2.981580
    30  H    8.399829   8.550567   4.738080   5.549132   2.990741
    31  H    8.269205   8.890848   2.775267   4.536226   4.983747
    32  H    8.775905   8.479877   4.668107   4.639820   4.901431
    33  H    4.171262   3.534629   5.465124   4.206531   2.780064
    34  H    2.763661   2.726084   4.250338   2.228994   4.959565
    35  H    3.495037   2.748802   7.015543   5.699679   4.497850
    36  H    2.813676   3.500413   6.213854   5.494040   4.253815
    37  H    2.709326   2.790315   7.575538   6.406908   5.817101
    38  H    1.108712   2.710306   6.969642   5.775269   6.997941
    39  H    1.107496   3.490914   5.513779   4.870622   5.801786
    40  H    1.109318   2.824644   5.548261   4.258349   6.593162
    41  H    2.763305   1.109151   7.844982   5.957373   7.022901
    42  H    2.767036   1.109113   6.722603   4.546508   6.753456
    43  H    3.493357   1.108527   7.179361   5.072467   5.927477
                   26         27         28         29         30
    26  H    0.000000
    27  H    4.823896   0.000000
    28  H    5.793142   3.030084   0.000000
    29  H    5.048478   4.998992   3.148642   0.000000
    30  H    3.077860   4.990981   5.041085   3.131531   0.000000
    31  H    2.875007   3.027336   4.954016   5.029498   3.125343
    32  H    4.912175   3.159118   3.164992   3.069967   3.067859
    33  H    5.184895   6.160853   4.424391   3.699546   5.347120
    34  H    5.616352   4.880259   3.930892   5.334654   6.644085
    35  H    6.751147   8.013087   6.301849   5.773058   7.341913
    36  H    5.777057   7.781105   6.738874   6.255846   7.062560
    37  H    7.498661   8.913737   7.561661   7.392898   8.653275
    38  H    7.729064   8.396654   7.615920   8.370498   9.419500
    39  H    6.073944   7.319326   6.972061   7.515481   8.058856
    40  H    6.855559   6.838209   6.393788   7.645730   8.590219
    41  H    8.599713   8.577887   6.949322   7.689513   9.518864
    42  H    7.976307   7.121916   5.603725   6.976580   8.834776
    43  H    7.855026   7.516651   5.471626   6.104367   8.266135
                   31         32         33         34         35
    31  H    0.000000
    32  H    3.147657   0.000000
    33  H    6.570762   6.012339   0.000000
    34  H    6.360611   6.314919   3.114764   0.000000
    35  H    8.504998   8.161811   2.158144   3.888852   0.000000
    36  H    7.907779   8.243821   2.730557   3.849577   1.794858
    37  H    9.451928   9.525993   3.694410   4.360800   1.782756
    38  H    9.372043   9.836765   4.927417   3.740516   3.791855
    39  H    7.891242   8.744345   4.318421   3.237244   3.782583
    40  H    8.090570   8.638283   4.709131   2.490471   4.374022
    41  H    9.915615   9.571018   4.362663   3.747931   3.052818
    42  H    8.838505   8.420195   4.192755   2.503818   3.792015
    43  H    8.900469   8.124346   3.157376   3.090891   2.558153
                   36         37         38         39         40
    36  H    0.000000
    37  H    1.788322   0.000000
    38  H    3.247604   2.543528   0.000000
    39  H    2.567634   2.975692   1.790343   0.000000
    40  H    3.806722   3.763339   1.791906   1.794123   0.000000
    41  H    3.793381   2.562892   2.492480   3.753131   3.204111
    42  H    4.375164   3.797109   3.032694   3.817163   2.621931
    43  H    3.795821   3.189213   3.748639   4.363679   3.834569
                   41         42         43
    41  H    0.000000
    42  H    1.792506   0.000000
[...]
                                             deloc 132: -0.02  0.02  0.02  0.03
                                             deloc 107:  0.03 -0.00  0.01  0.03
                                             deloc  96: -0.00  0.03  0.00  0.03
                                             deloc  87: -0.00  0.01  0.02  0.03
                                             deloc  86:  0.00  0.01  0.02  0.02
                                             deloc 130:  0.00  0.02 -0.01  0.02
                                             deloc  83:  0.01  0.02  0.01  0.02

  74. 3C ( 1)B4-B8-B9        -0.44 -0.60  0.24  0.78     0.20 -2.69 -0.18  2.70
                                             deloc 127: -0.41  0.28  0.41  0.65
                                             deloc 129: -0.34  0.30 -0.05  0.45
                                             deloc  29:  0.25  0.36  0.04  0.44
                                             deloc 130:  0.06  0.18 -0.12  0.22
                                             deloc  94: -0.15  0.15  0.04  0.22
                                             deloc 124: -0.20 -0.05 -0.02  0.21
                                             deloc  84:  0.19  0.07 -0.03  0.21
                                             deloc  98: -0.03  0.14 -0.01  0.14
                                             deloc 125: -0.03  0.12 -0.03  0.13
                                             deloc  38:  0.01  0.11  0.04  0.12
                                             deloc 134:  0.08 -0.07 -0.01  0.11
                                             deloc  99:  0.00  0.07  0.04  0.08
                                             deloc 123: -0.06 -0.00 -0.05  0.08
                                             deloc  91: -0.00  0.03  0.06  0.07
                                             deloc 136:  0.03 -0.04 -0.04  0.06
                                             deloc 128: -0.04  0.01  0.04  0.06
                                             deloc  41: -0.00 -0.00  0.06  0.06
                                             deloc  87: -0.01  0.05  0.02  0.05
                                             deloc  85:  0.02  0.04  0.02  0.05
                                             deloc 131:  0.00 -0.01  0.05  0.05
                                             deloc  80:  0.00  0.02 -0.04  0.05
                                             deloc 126: -0.02  0.04 -0.02  0.04
                                             deloc 133: -0.02  0.02 -0.03  0.04
                                             deloc  86:  0.01  0.04 -0.01  0.04
                                             deloc  78: -0.04  0.01 -0.01  0.04
                                             deloc  42:  0.02  0.03  0.00  0.04
                                             deloc 132: -0.01  0.03  0.01  0.04
                                             deloc 135: -0.03  0.00 -0.02  0.03
                                             deloc  77: -0.02 -0.00 -0.02  0.03
                                             deloc  83:  0.01  0.02  0.01  0.03
                                             deloc  92:  0.01  0.02  0.01  0.03
                                             deloc  93:  0.01  0.00  0.02  0.02

  75. 3C ( 1)B5-B6-B10        1.76  0.62 -0.25  1.88     1.71  1.05 -1.36  2.42
                                             deloc 136: -0.11 -0.16  0.06  0.20
                                             deloc  95: -0.05 -0.07  0.18  0.20
                                             deloc 133: -0.11  0.05  0.13  0.18
                                             deloc  96: -0.01 -0.15  0.07  0.17
                                             deloc  29:  0.08  0.07  0.09  0.14
                                             deloc 128: -0.05 -0.06  0.10  0.13
                                             deloc 100:  0.03 -0.04  0.09  0.11
                                             deloc  83:  0.08  0.02  0.06  0.10
                                             deloc  34:  0.08 -0.01  0.04  0.09
                                             deloc 123:  0.04 -0.06  0.03  0.09
                                             deloc  85:  0.08  0.01  0.03  0.08
                                             deloc 126: -0.07 -0.03 -0.01  0.07
                                             deloc  80:  0.05  0.02  0.04  0.07
                                             deloc 127: -0.04 -0.03  0.04  0.06
                                             deloc 130: -0.00  0.05 -0.03  0.06
                                             deloc 125:  0.03  0.03  0.02  0.05
                                             deloc  33:  0.03  0.02  0.03  0.04
                                             deloc  38: -0.03  0.02 -0.00  0.04
                                             deloc  28: -0.03  0.00 -0.03  0.04
                                             deloc  76: -0.03  0.01  0.01  0.04
                                             deloc  91:  0.02 -0.02  0.01  0.03
                                             deloc  87:  0.00 -0.00  0.03  0.03
                                             deloc  41:  0.02 -0.02  0.00  0.02
                                             deloc  77: -0.02 -0.01  0.00  0.02
                                             deloc  99: -0.00 -0.02 -0.01  0.02
                                             deloc 134: -0.01 -0.01  0.00  0.02
                                             deloc 101: -0.02  0.01  0.01  0.02
                                             deloc  86:  0.01 -0.01 -0.01  0.02

  76. 3C ( 1)B6-B10-B11      -0.80 -0.46  0.54  1.07    -2.24  0.88 -0.15  2.41
                                             deloc 128: -0.02 -0.53  0.48  0.72
                                             deloc 136:  0.06 -0.40 -0.05  0.41
                                             deloc  29:  0.39  0.05  0.06  0.40
                                             deloc 101:  0.13 -0.12 -0.00  0.17
                                             deloc 132:  0.11 -0.04 -0.07  0.13
                                             deloc 100:  0.09 -0.05  0.06  0.12
                                             deloc 135: -0.03  0.11 -0.02  0.11
                                             deloc  34:  0.11 -0.03  0.02  0.11
                                             deloc  85:  0.10 -0.00  0.01  0.10
                                             deloc 127: -0.02 -0.04  0.09  0.10
                                             deloc  41:  0.08 -0.04  0.03  0.09
                                             deloc  96:  0.03 -0.05  0.01  0.06
                                             deloc  78: -0.02 -0.03 -0.04  0.05
                                             deloc  38: -0.01 -0.02  0.05  0.05
                                             deloc 133: -0.02  0.01  0.05  0.05
                                             deloc  39:  0.05  0.00  0.01  0.05
                                             deloc  89:  0.05 -0.00  0.02  0.05
                                             deloc  74:  0.03 -0.04 -0.02  0.05
                                             deloc 131:  0.01 -0.04 -0.02  0.05
                                             deloc  83:  0.04  0.01  0.01  0.05
                                             deloc 125:  0.03  0.02  0.00  0.04
                                             deloc  87:  0.02 -0.02  0.02  0.04
                                             deloc  73:  0.03 -0.02 -0.01  0.04
                                             deloc  80:  0.03 -0.00  0.02  0.04
                                             deloc 126: -0.03 -0.02 -0.00  0.03
                                             deloc 134: -0.02 -0.02 -0.02  0.03
                                             deloc 129: -0.01  0.03 -0.01  0.03
                                             deloc  90:  0.01  0.01  0.02  0.03
                                             deloc 123:  0.02 -0.02 -0.00  0.03
                                             deloc  86:  0.02 -0.00 -0.00  0.02
                                             deloc  95:  0.01  0.00 -0.02  0.02

  77. 3C ( 1)B7-B8-B12        0.67 -0.78 -0.68  1.23    -0.67 -2.50  0.46  2.63
                                             deloc 124:  0.44  0.05 -0.41  0.61
                                             deloc 129:  0.06  0.14 -0.29  0.33
                                             deloc 126:  0.05  0.21 -0.10  0.24
                                             deloc  29:  0.16  0.14 -0.05  0.22
                                             deloc 135: -0.06  0.21  0.01  0.22
                                             deloc  98:  0.03  0.14 -0.07  0.16
                                             deloc  85:  0.13  0.08 -0.01  0.16
                                             deloc  39:  0.07  0.12  0.01  0.14
                                             deloc  97:  0.04  0.07 -0.10  0.13
                                             deloc 131: -0.01 -0.05  0.11  0.12
                                             deloc 125: -0.02  0.09 -0.08  0.12
                                             deloc 102:  0.07  0.07 -0.02  0.10
                                             deloc  89:  0.01  0.09  0.01  0.10
                                             deloc  38:  0.04  0.08  0.02  0.09
                                             deloc 127: -0.03 -0.04 -0.08  0.09
                                             deloc  87:  0.07  0.06  0.02  0.09
                                             deloc  84:  0.07  0.01 -0.02  0.08
                                             deloc 128: -0.05  0.01 -0.06  0.08
                                             deloc 136: -0.07  0.01 -0.03  0.07
                                             deloc  42:  0.02  0.06  0.03  0.07
                                             deloc  41:  0.06  0.02 -0.01  0.07
                                             deloc 123:  0.05 -0.03 -0.02  0.06
                                             deloc  88:  0.02  0.05  0.01  0.06
                                             deloc  34:  0.03  0.01 -0.00  0.03
                                             deloc  80:  0.03  0.01 -0.02  0.03
                                             deloc 134:  0.02 -0.02  0.00  0.03
                                             deloc  78: -0.00  0.02  0.02  0.03
                                             deloc  83:  0.02  0.02  0.00  0.03
                                             deloc 130: -0.02  0.01 -0.01  0.03
                                             deloc  94:  0.02 -0.01 -0.01  0.03

  78. 3C ( 1)B7-B11-B12       0.09  1.44 -0.79  1.65    -2.29  0.81  0.50  2.48
                                             deloc 126:  0.43  0.48 -0.54  0.84
                                             deloc  29:  0.39  0.16 -0.06  0.43
                                             deloc 136:  0.16 -0.04 -0.27  0.32
                                             deloc 125:  0.07  0.14 -0.18  0.23
                                             deloc 134:  0.14 -0.15  0.02  0.21
                                             deloc  80:  0.12 -0.00 -0.09  0.16
                                             deloc  39:  0.14  0.01  0.06  0.15
                                             deloc  97:  0.09 -0.01 -0.11  0.15
                                             deloc 101:  0.12 -0.04 -0.06  0.14
                                             deloc 135: -0.01  0.12 -0.01  0.13
                                             deloc 133: -0.06  0.01  0.11  0.12
                                             deloc  87:  0.10  0.03  0.02  0.10
                                             deloc 124:  0.09 -0.04 -0.04  0.10
                                             deloc 102:  0.09  0.02 -0.02  0.09
                                             deloc  42:  0.09 -0.01  0.01  0.09
                                             deloc  41:  0.08 -0.01  0.01  0.08
                                             deloc 127: -0.02 -0.05 -0.06  0.08
                                             deloc  38:  0.07  0.04  0.01  0.08
                                             deloc 129: -0.00 -0.05 -0.06  0.07
                                             deloc  92:  0.06 -0.03  0.01  0.07
                                             deloc  81:  0.04  0.03 -0.01  0.05
                                             deloc 128: -0.02 -0.01 -0.04  0.04
                                             deloc  83:  0.04  0.02  0.00  0.04
                                             deloc  84:  0.03 -0.00 -0.01  0.03
                                             deloc  85:  0.03  0.00 -0.01  0.03
                                             deloc  88: -0.00 -0.01  0.02  0.03
                                             deloc  34:  0.02  0.00 -0.00  0.02
                                             deloc 132: -0.01 -0.02 -0.01  0.02

  79. 3C ( 1)B9-B10-B12      -0.30 -0.46 -0.22  0.59    -1.01 -0.77 -0.90  1.55
                                             deloc 124:  0.18 -0.06  0.14  0.24
                                             deloc 102:  0.16  0.09  0.05  0.19
                                             deloc 126:  0.04  0.15  0.10  0.19
                                             deloc 127:  0.10 -0.04  0.15  0.18
                                             deloc  99:  0.07  0.11  0.12  0.17
                                             deloc 100:  0.10  0.00  0.11  0.15
                                             deloc 131:  0.01  0.00 -0.12  0.12
                                             deloc 128:  0.01  0.08  0.09  0.12
                                             deloc 134: -0.11  0.04  0.02  0.12
                                             deloc 135: -0.03 -0.10  0.03  0.11
                                             deloc 133:  0.02 -0.00 -0.10  0.10
                                             deloc 130:  0.01 -0.08  0.01  0.08
                                             deloc 132: -0.02  0.06  0.00  0.06
                                             deloc  81: -0.01 -0.00  0.04  0.04
                                             deloc  91:  0.03 -0.01  0.00  0.04
                                             deloc  98:  0.01 -0.02  0.02  0.03
                                             deloc 123:  0.02  0.02 -0.00  0.03
                                             deloc  94:  0.02 -0.01 -0.00  0.03
                                             deloc 101: -0.01  0.02  0.01  0.03
                                             deloc 129:  0.00 -0.02  0.01  0.02
                                             deloc  88:  0.01  0.02  0.00  0.02

   Residual nuclear charge   -2.68 -8.54  4.73 10.12    -2.68 -8.54  4.73 10.12
                            ----------------------------------------------------
         Net dipole moment   -5.14  1.11 -3.11  6.11     6.69  2.55 10.31 12.56
 Delocalization correction                             -11.83 -1.44-13.42 17.95
                            ----------------------------------------------------
       Total dipole moment   -5.14  1.11 -3.11  6.11    -5.14  1.11 -3.11  6.11


 Dipole moment analysis by molecular fragment:

                               NLMO fragment dipole        NBO fragment dipole
                             -------------------------  ------------------------
       Molecular fragment      x     y     z   Total      x     y     z   Total
 ===============================================================================
   1. C2O2Ru                  1.52  3.54 -5.04  6.35     9.06 11.14  1.06 14.40
                                                 deloc: -7.54 -7.60 -6.10 12.33

   2. C8H21B9                -3.97  6.11 -2.79  7.80     0.31 -0.05  4.53  4.54
                                                 deloc: -4.29  6.16 -7.32 10.49

   Residual nuclear charge   -2.68 -8.54  4.73 10.12    -2.68 -8.54  4.73 10.12
                            ----------------------------------------------------
       Total dipole moment   -5.14  1.11 -3.11  6.11    -5.14  1.11 -3.11  6.11

 Maximum scratch memory used by NBO was 6676610 words (50.94 MB)
 Maximum scratch memory used by G16NBO was 1015732 words (7.75 MB)

 Opening RunExU unformatted file "/cluster/work/users/davidbal/huge_pack_162/Gau-55939.EUF"
 Read unf file /cluster/work/users/davidbal/huge_pack_162/Gau-55939.EUF:
 Label Gaussian matrix elements                                         IVers= 2 NLab= 2 Version=ES64L-G16RevC.01
 Title tmQMg project                                                   
 NAtoms=    43 NBasis=   817 NBsUse=   817 ICharg=     0 Multip=     1 NE=   158 Len12L=8 Len4L=8 IOpCl= 0 ICGU=111
 GAUSSIAN SCALARS                    NI= 1 NR= 1 NTot=       1 LenBuf=    2 NRI=1 N=    1000
 NPA CHARGES                         NI= 0 NR= 1 NTot=      43 LenBuf= 2048 NRI=1 N=      43
 Recovered energy= -862.351823029     dipole=     -2.022952678439      0.436440405571     -1.223186140609
 Leave Link  612 at Thu Jul  1 07:17:10 2021, MaxMem=  3355443200 cpu:            1087.4 elap:              58.0
 (Enter /cluster/software/Gaussian/g16_C.01/l9999.exe)
 Unable to Open any file for archive entry.
 1\1\GINC-C2-27\SP\RPBE1PBE\def2TZVP\C10H21B9O2Ru1\DAVIDBAL\01-Jul-2021
 \0\\#p pbe1pbe/def2TZVP empiricaldispersion=gd3bj geom=check guess=rea
 d scf(conver=5) pop=nbo7read\\tmQMg project\\0,1\Ru,0,0.549581439,3.99
 97406887,4.7252142184\C,0,0.7780640551,3.5123174924,2.4929030522\C,0,1
 .1510629176,2.2678929906,3.4228511157\B,0,-0.1669355703,1.9530688188,4
 .5518226788\B,0,-1.5029825249,3.1369131112,4.1216575668\B,0,-0.7676217
 145,4.1733529184,2.8362293131\B,0,0.7769838579,1.9196532909,1.80916219
 55\B,0,0.1684136912,0.9165175065,3.148406727\B,0,-1.5099344011,1.44602
 76634,3.5322552697\B,0,-1.8907984871,2.8265091627,2.4301360803\B,0,-0.
 4614033286,3.1174566535,1.4136403769\B,0,-0.9334693464,1.4369806852,1.
 8444795255\C,0,-0.3572680864,5.3503549061,5.6283032076\O,0,-0.97099266
 38,6.1769011505,6.1681444366\C,0,2.1418750559,5.0454270178,4.748799479
 8\O,0,3.1215918205,5.6635236521,4.6541374071\C,0,0.2018610113,2.214596
 4096,6.0282020128\C,0,1.4827488267,2.6599503996,6.4288359193\C,0,1.842
 0518766,3.0922312267,7.8487397134\C,0,0.6412139001,3.637761208,8.63660
 67981\C,0,2.9606477296,4.1493658297,7.8204457394\C,0,2.3756905818,1.81
 41649664,8.5463071915\H,0,1.6039678738,4.1184286067,2.0990092615\H,0,2
 .2073438383,2.0704429763,3.6501968406\H,0,-2.3673742458,3.4539706561,4
 .9068573694\H,0,-1.0139063536,5.318379757,2.5432363783\H,0,1.678668851
 1,1.5924098609,1.0813333806\H,0,0.6560189184,-0.1740968512,3.320764398
 2\H,0,-2.3259120502,0.6413275286,3.9183552405\H,0,-3.0074712568,3.0334
 793221,2.0158372551\H,0,-0.451769353,3.5994889356,0.3082690754\H,0,-1.
 3397068839,0.6626165537,1.0111841838\H,0,-0.6270946367,2.3109748317,6.
 7490690393\H,0,2.3588686345,2.2937572123,5.8627937888\H,0,-0.149850219
 1,2.8745263351,8.7769331297\H,0,0.1890071456,4.516639405,8.1365003509\
 H,0,0.9679810292,3.9576865572,9.6460920281\H,0,3.3531403265,4.32467497
 06,8.8424335902\H,0,2.5843732469,5.1160148005,7.4324310865\H,0,3.80944
 54882,3.8294302139,7.181877486\H,0,2.6738155131,2.0457995495,9.5892278
 796\H,0,3.2639726011,1.4064058171,8.0220755327\H,0,1.6018008919,1.0210
 352126,8.5758426793\\Version=ES64L-G16RevC.01\State=1-A\HF=-862.351823
 \RMSD=2.502e-06\Dipole=1.9331628,-0.1343808,1.4226122\Quadrupole=-1.70
 89755,-2.7969639,4.5059395,-2.7596776,-4.1445884,-4.4228092\PG=C01 [X(
 C10H21B9O2Ru1)]\\@
 The archive entry for this job was punched.


 TO SEE A WORLD IN A GRAIN OF SAND
 AND A HEAVEN IN A WILD FLOWER
 HOLD INFINITY IN THE PALM OF YOUR HAND
 AND ETERNITY IN AN HOUR

                       -- WILLIAM BLAKE
 Job cpu time:       0 days  2 hours 26 minutes 21.7 seconds.
 Elapsed time:       0 days  0 hours  7 minutes 29.7 seconds.
 File lengths (MBytes):  RWF=    353 Int=      0 D2E=      0 Chk=     50 Scr=      1
 Normal termination of Gaussian 16 at Thu Jul  1 07:17:12 2021.
